LAMMPS data file for tetmsm

133 atoms
628 bonds
376 impropers

2 atom types
1 bond types
1 improper types

-0.5 1.5 xlo xhi
-0.5 1.5 ylo yhi
-0.5 1.5 zlo zhi

Masses

1 1.0
2 1.0

Atoms  # hybrid full sphere

1 2 0 0 1 1 0 0 1.05608109793932
2 2 0 0 0 1 0 0 1.056081097939319
3 2 0 1 1 1 0 0 1.056081097939321
4 2 0 1 0 1 0 0 1.05608109793932
5 2 1 0 1 1 0 0 1.056081097939321
6 2 1 0 0 1 0 0 1.05608109793932
7 2 1 1 1 1 0 0 1.056081097939322
8 2 1 1 0 1 0 0 1.056081097939321
9 2 0 0 0.25 1 0 0 2.750933996283698
10 2 0 0 0.5 1 0 0 1.01051705404384
11 2 0 0 0.75 1 0 0 2.750933996283697
12 2 0 0.25 1 1 0 0 2.7509339962837
13 2 0 0.5 1 1 0 0 1.01051705404384
14 2 0 0.75 1 1 0 0 2.750933996283698
15 2 0 1 0.25 1 0 0 2.750933996283699
16 2 0 1 0.5 1 0 0 1.010517054043841
17 2 0 1 0.75 1 0 0 2.750933996283699
18 2 0 0.25 0 1 0 0 2.750933996283698
19 2 0 0.5 0 1 0 0 1.01051705404384
20 2 0 0.75 0 1 0 0 2.750933996283697
21 2 1 0 0.25 1 0 0 2.7509339962837
22 2 1 0 0.5 1 0 0 1.01051705404384
23 2 1 0 0.75 1 0 0 2.750933996283698
24 2 1 0.25 1 1 0 0 2.750933996283702
25 2 1 0.5 1 1 0 0 1.010517054043841
26 2 1 0.75 1 1 0 0 2.750933996283699
27 2 1 1 0.25 1 0 0 2.750933996283701
28 2 1 1 0.5 1 0 0 1.010517054043841
29 2 1 1 0.75 1 0 0 2.750933996283699
30 2 1 0.25 0 1 0 0 2.7509339962837
31 2 1 0.5 0 1 0 0 1.01051705404384
32 2 1 0.75 0 1 0 0 2.750933996283698
33 2 0.25 0 0 1 0 0 2.750933996283698
34 2 0.5 0 0 1 0 0 1.01051705404384
35 2 0.75 0 0 1 0 0 2.750933996283697
36 2 0.25 0 1 1 0 0 2.7509339962837
37 2 0.5 0 1 1 0 0 1.01051705404384
38 2 0.75 0 1 1 0 0 2.750933996283699
39 2 0.25 1 0 1 0 0 2.7509339962837
40 2 0.5 1 0 1 0 0 1.01051705404384
41 2 0.75 1 0 1 0 0 2.750933996283698
42 2 0.25 1 1 1 0 0 2.750933996283702
43 2 0.5 1 1 1 0 0 1.010517054043841
44 2 0.75 1 1 1 0 0 2.750933996283699
45 2 0 0.5 0.5 1 0 0 12.72013401190512
46 2 0 0.7083333333333333 0.7083333333333333 1 0 0 7.739844733782632
47 2 0 0.7083333333333333 0.2916666666666666 1 0 0 10.43078794252274
48 2 0 0.2916666666666666 0.2916666666666666 1 0 0 15.06080788678341
49 2 0 0.2916666666666666 0.7083333333333333 1 0 0 10.80533690330652
50 2 0 0.5 0.2202380952380953 1 0 0 4.89357549845455
51 2 0 0.5000000000000001 0.7797619047619047 1 0 0 9.726855294111871
52 2 0 0.7797619047619045 0.4999999999999999 1 0 0 9.216565499706832
53 2 0 0.2202380952380953 0.5 1 0 0 4.982283336665835
54 2 0 0.8453205261696514 0.8453205261696514 1 0 0 2.444308455218094
55 2 0 0.8453205261696514 0.1546794738303485 1 0 0 1.521421029771333
56 2 0 0.1546794738303485 0.8453205261696514 1 0 0 1.521421029771333
57 2 0 0.1546794738303484 0.1546794738303484 1 0 0 3.807343342173024
58 2 1 0.5 0.5 1 0 0 13.47699183254133
59 2 1 0.7083333333333333 0.7083333333333333 1 0 0 13.08482564810578
60 2 1 0.7083333333333333 0.2916666666666666 1 0 0 8.273495730070255
61 2 1 0.2916666666666666 0.2916666666666666 1 0 0 7.739844733782635
62 2 1 0.2916666666666666 0.7083333333333333 1 0 0 9.763467049803445
63 2 1 0.5 0.2202380952380953 1 0 0 10.75951881488
64 2 1 0.5000000000000001 0.7797619047619047 1 0 0 10.32919347230851
65 2 1 0.7797619047619045 0.4999999999999999 1 0 0 7.249502451216024
66 2 1 0.2202380952380953 0.5 1 0 0 9.049828172839506
67 2 1 0.8453205261696514 0.8453205261696514 1 0 0 1.521421029771336
68 2 1 0.8453205261696514 0.1546794738303485 1 0 0 4.400262978486506
69 2 1 0.1546794738303485 0.8453205261696514 1 0 0 1.521421029771336
70 2 1 0.1546794738303484 0.1546794738303484 1 0 0 2.444308455218094
71 2 0.5 0 0.5 1 0 0 13.46905906379186
72 2 0.2916666666666666 0 0.7083333333333333 1 0 0 6.613358967845071
73 2 0.7083333333333333 0 0.7083333333333333 1 0 0 8.242494050738046
74 2 0.2916666666666666 0 0.2916666666666666 1 0 0 7.878996106538553
75 2 0.7083333333333333 0 0.2916666666666666 1 0 0 8.492681939103814
76 2 0.2202380952380953 0 0.5 1 0 0 10.75620410888009
77 2 0.7797619047619047 0 0.5000000000000001 1 0 0 9.111971302240658
78 2 0.5000000000000001 0 0.7797619047619047 1 0 0 10.10693712978635
79 2 0.5 0 0.2202380952380953 1 0 0 8.862073883353302
80 2 0.1546794738303485 0 0.8453205261696514 1 0 0 4.591686437412345
81 2 0.8453205261696514 0 0.8453205261696514 1 0 0 4.694177765456999
82 2 0.8453205261696514 0 0.1546794738303485 1 0 0 3.387050309326935
83 2 0.1546794738303484 0 0.1546794738303484 1 0 0 4.597165530983274
84 2 0.5 1 0.5 1 0 0 9.386719811929604
85 2 0.2916666666666666 1 0.7083333333333333 1 0 0 9.745483077972665
86 2 0.7083333333333333 1 0.7083333333333333 1 0 0 7.187952711899489
87 2 0.2916666666666666 1 0.2916666666666666 1 0 0 8.803604625083207
88 2 0.7083333333333333 1 0.2916666666666666 1 0 0 9.192725461737025
89 2 0.2202380952380953 1 0.5 1 0 0 10.94673278476596
90 2 0.7797619047619047 1 0.5000000000000001 1 0 0 11.67616279976466
91 2 0.5000000000000001 1 0.7797619047619047 1 0 0 9.85634366967512
92 2 0.5 1 0.2202380952380953 1 0 0 9.846150501567861
93 2 0.1546794738303485 1 0.8453205261696514 1 0 0 3.387050309326936
94 2 0.8453205261696514 1 0.8453205261696514 1 0 0 3.508221140654974
95 2 0.8453205261696514 1 0.1546794738303485 1 0 0 2.566276188855674
96 2 0.1546794738303484 1 0.1546794738303484 1 0 0 4.892823521530362
97 2 0.5 0.5 0 1 0 0 13.36113201950296
98 2 0.7083333333333333 0.2916666666666666 0 1 0 0 9.245519144424994
99 2 0.7083333333333333 0.7083333333333333 0 1 0 0 9.646031182948338
100 2 0.2916666666666666 0.2916666666666666 0 1 0 0 8.284484583234418
101 2 0.2916666666666666 0.7083333333333333 0 1 0 0 12.70342376575176
102 2 0.5 0.2202380952380953 0 1 0 0 8.826143389824912
103 2 0.7797619047619047 0.5000000000000001 0 1 0 0 7.302374553141495
104 2 0.5000000000000001 0.7797619047619047 0 1 0 0 6.563691249472371
105 2 0.2202380952380953 0.5 0 1 0 0 11.21776737960488
106 2 0.8453205261696514 0.1546794738303485 0 1 0 0 4.329792163435776
107 2 0.8453205261696514 0.8453205261696514 0 1 0 0 3.415700227817239
108 2 0.1546794738303485 0.8453205261696514 0 1 0 0 3.539239946390444
109 2 0.1546794738303484 0.1546794738303484 0 1 0 0 1.521421029771332
110 2 0.5 0.5 1 1 0 0 6.557212234188319
111 2 0.7083333333333333 0.2916666666666666 1 1 0 0 10.01888711195562
112 2 0.7083333333333333 0.7083333333333333 1 1 0 0 11.52158124990055
113 2 0.2916666666666666 0.2916666666666666 1 1 0 0 11.3609635036844
114 2 0.2916666666666666 0.7083333333333333 1 1 0 0 7.992718005556148
115 2 0.5 0.2202380952380953 1 1 0 0 11.8082153779088
116 2 0.7797619047619047 0.5000000000000001 1 1 0 0 6.288941189899014
117 2 0.5000000000000001 0.7797619047619047 1 1 0 0 11.19701282851065
118 2 0.2202380952380953 0.5 1 1 0 0 12.02158232394282
119 2 0.8453205261696514 0.1546794738303485 1 1 0 0 3.822759885375888
120 2 0.8453205261696514 0.8453205261696514 1 1 0 0 4.955911818385019
121 2 0.1546794738303485 0.8453205261696514 1 1 0 0 4.329792163435777
122 2 0.1546794738303484 0.1546794738303484 1 1 0 0 3.872446521627641
123 1 0.5 0.5 0.5 1 0 0 13.99205262146791
124 1 0.6837121212121212 0.3162878787878788 0.3162878787878788 1 0 0 28.81575836950053
125 1 0.3741231762065095 0.2992774971941639 0.2992774971941639 1 0 0 30.95851050046815
126 1 0.2655275140564404 0.6147922507745105 0.3270227081811889 1 0 0 29.89151711543676
127 1 0.2914261106797351 0.2914261106797351 0.5991821096444327 1 0 0 36.67667567726914
128 1 0.6766180261079596 0.6340770759715547 0.2939894837459335 1 0 0 33.99727530911121
129 1 0.708573889320265 0.708573889320265 0.5991821096444325 1 0 0 26.612070582553
130 1 0.690880343289666 0.3167124338241423 0.6324272205509407 1 0 0 35.29545840305052
131 1 0.3162878787878788 0.6837121212121213 0.6837121212121212 1 0 0 34.96439635391117
132 1 0.5983435542421162 0.5149308609247617 0.75 1 0 0 22.60012063287893
133 1 0.4850691390752385 0.75 0.401656445757884 1 0 0 17.60928067862285

Bonds

1 1 2 9
2 1 9 10
3 1 1 11
4 1 10 11
5 1 1 12
6 1 12 13
7 1 3 14
8 1 13 14
9 1 4 15
10 1 15 16
11 1 3 17
12 1 16 17
13 1 2 18
14 1 18 19
15 1 4 20
16 1 19 20
17 1 6 21
18 1 21 22
19 1 5 23
20 1 22 23
21 1 5 24
22 1 24 25
23 1 7 26
24 1 25 26
25 1 8 27
26 1 27 28
27 1 7 29
28 1 28 29
29 1 6 30
30 1 30 31
31 1 8 32
32 1 31 32
33 1 2 33
34 1 33 34
35 1 6 35
36 1 34 35
37 1 1 36
38 1 36 37
39 1 5 38
40 1 37 38
41 1 4 39
42 1 39 40
43 1 8 41
44 1 40 41
45 1 3 42
46 1 42 43
47 1 7 44
48 1 43 44
49 1 14 46
50 1 17 46
51 1 45 46
52 1 15 47
53 1 20 47
54 1 45 47
55 1 9 48
56 1 18 48
57 1 45 48
58 1 11 49
59 1 12 49
60 1 45 49
61 1 18 50
62 1 19 50
63 1 20 50
64 1 45 50
65 1 47 50
66 1 48 50
67 1 12 51
68 1 13 51
69 1 14 51
70 1 45 51
71 1 46 51
72 1 49 51
73 1 15 52
74 1 16 52
75 1 17 52
76 1 45 52
77 1 46 52
78 1 47 52
79 1 9 53
80 1 10 53
81 1 11 53
82 1 45 53
83 1 48 53
84 1 49 53
85 1 3 54
86 1 14 54
87 1 17 54
88 1 46 54
89 1 4 55
90 1 15 55
91 1 20 55
92 1 47 55
93 1 1 56
94 1 11 56
95 1 12 56
96 1 49 56
97 1 2 57
98 1 9 57
99 1 18 57
100 1 48 57
101 1 26 59
102 1 29 59
103 1 58 59
104 1 27 60
105 1 32 60
106 1 58 60
107 1 21 61
108 1 30 61
109 1 58 61
110 1 23 62
111 1 24 62
112 1 58 62
113 1 30 63
114 1 31 63
115 1 32 63
116 1 58 63
117 1 60 63
118 1 61 63
119 1 24 64
120 1 25 64
121 1 26 64
122 1 58 64
123 1 59 64
124 1 62 64
125 1 27 65
126 1 28 65
127 1 29 65
128 1 58 65
129 1 59 65
130 1 60 65
131 1 21 66
132 1 22 66
133 1 23 66
134 1 58 66
135 1 61 66
136 1 62 66
137 1 7 67
138 1 26 67
139 1 29 67
140 1 59 67
141 1 8 68
142 1 27 68
143 1 32 68
144 1 60 68
145 1 5 69
146 1 23 69
147 1 24 69
148 1 62 69
149 1 6 70
150 1 21 70
151 1 30 70
152 1 61 70
153 1 11 72
154 1 36 72
155 1 49 72
156 1 71 72
157 1 23 73
158 1 38 73
159 1 62 73
160 1 71 73
161 1 9 74
162 1 33 74
163 1 48 74
164 1 71 74
165 1 21 75
166 1 35 75
167 1 61 75
168 1 66 75
169 1 71 75
170 1 9 76
171 1 10 76
172 1 11 76
173 1 48 76
174 1 49 76
175 1 53 76
176 1 71 76
177 1 72 76
178 1 74 76
179 1 21 77
180 1 22 77
181 1 23 77
182 1 62 77
183 1 66 77
184 1 71 77
185 1 73 77
186 1 75 77
187 1 36 78
188 1 37 78
189 1 38 78
190 1 71 78
191 1 72 78
192 1 73 78
193 1 33 79
194 1 34 79
195 1 35 79
196 1 71 79
197 1 74 79
198 1 75 79
199 1 1 80
200 1 11 80
201 1 36 80
202 1 49 80
203 1 56 80
204 1 72 80
205 1 5 81
206 1 23 81
207 1 38 81
208 1 62 81
209 1 69 81
210 1 73 81
211 1 6 82
212 1 21 82
213 1 35 82
214 1 61 82
215 1 70 82
216 1 75 82
217 1 2 83
218 1 9 83
219 1 33 83
220 1 48 83
221 1 57 83
222 1 74 83
223 1 17 85
224 1 42 85
225 1 46 85
226 1 52 85
227 1 84 85
228 1 29 86
229 1 44 86
230 1 59 86
231 1 84 86
232 1 15 87
233 1 39 87
234 1 47 87
235 1 84 87
236 1 27 88
237 1 41 88
238 1 60 88
239 1 68 88
240 1 84 88
241 1 15 89
242 1 16 89
243 1 17 89
244 1 47 89
245 1 52 89
246 1 84 89
247 1 85 89
248 1 87 89
249 1 27 90
250 1 28 90
251 1 29 90
252 1 59 90
253 1 60 90
254 1 65 90
255 1 84 90
256 1 86 90
257 1 88 90
258 1 42 91
259 1 43 91
260 1 44 91
261 1 84 91
262 1 85 91
263 1 86 91
264 1 39 92
265 1 40 92
266 1 41 92
267 1 84 92
268 1 87 92
269 1 88 92
270 1 3 93
271 1 17 93
272 1 42 93
273 1 46 93
274 1 54 93
275 1 85 93
276 1 7 94
277 1 29 94
278 1 44 94
279 1 59 94
280 1 67 94
281 1 86 94
282 1 8 95
283 1 27 95
284 1 41 95
285 1 68 95
286 1 88 95
287 1 4 96
288 1 15 96
289 1 39 96
290 1 47 96
291 1 55 96
292 1 87 96
293 1 30 98
294 1 35 98
295 1 61 98
296 1 63 98
297 1 75 98
298 1 79 98
299 1 97 98
300 1 32 99
301 1 41 99
302 1 60 99
303 1 63 99
304 1 68 99
305 1 88 99
306 1 92 99
307 1 97 99
308 1 18 100
309 1 33 100
310 1 48 100
311 1 57 100
312 1 74 100
313 1 83 100
314 1 97 100
315 1 20 101
316 1 39 101
317 1 47 101
318 1 87 101
319 1 92 101
320 1 96 101
321 1 97 101
322 1 33 102
323 1 34 102
324 1 35 102
325 1 74 102
326 1 79 102
327 1 97 102
328 1 98 102
329 1 100 102
330 1 30 103
331 1 31 103
332 1 32 103
333 1 63 103
334 1 97 103
335 1 98 103
336 1 99 103
337 1 39 104
338 1 40 104
339 1 41 104
340 1 92 104
341 1 97 104
342 1 99 104
343 1 101 104
344 1 18 105
345 1 19 105
346 1 20 105
347 1 47 105
348 1 48 105
349 1 50 105
350 1 97 105
351 1 100 105
352 1 101 105
353 1 6 106
354 1 30 106
355 1 35 106
356 1 61 106
357 1 70 106
358 1 75 106
359 1 82 106
360 1 98 106
361 1 8 107
362 1 32 107
363 1 41 107
364 1 68 107
365 1 88 107
366 1 95 107
367 1 99 107
368 1 4 108
369 1 20 108
370 1 39 108
371 1 47 108
372 1 55 108
373 1 96 108
374 1 101 108
375 1 2 109
376 1 18 109
377 1 33 109
378 1 57 109
379 1 83 109
380 1 100 109
381 1 24 111
382 1 38 111
383 1 62 111
384 1 64 111
385 1 73 111
386 1 81 111
387 1 110 111
388 1 26 112
389 1 44 112
390 1 59 112
391 1 64 112
392 1 86 112
393 1 91 112
394 1 110 112
395 1 12 113
396 1 36 113
397 1 49 113
398 1 72 113
399 1 78 113
400 1 80 113
401 1 110 113
402 1 14 114
403 1 42 114
404 1 46 114
405 1 51 114
406 1 85 114
407 1 110 114
408 1 36 115
409 1 37 115
410 1 38 115
411 1 73 115
412 1 78 115
413 1 110 115
414 1 111 115
415 1 113 115
416 1 24 116
417 1 25 116
418 1 26 116
419 1 64 116
420 1 110 116
421 1 111 116
422 1 112 116
423 1 42 117
424 1 43 117
425 1 44 117
426 1 85 117
427 1 91 117
428 1 110 117
429 1 112 117
430 1 114 117
431 1 12 118
432 1 13 118
433 1 14 118
434 1 49 118
435 1 51 118
436 1 110 118
437 1 113 118
438 1 114 118
439 1 5 119
440 1 24 119
441 1 38 119
442 1 62 119
443 1 69 119
444 1 81 119
445 1 111 119
446 1 7 120
447 1 26 120
448 1 44 120
449 1 59 120
450 1 67 120
451 1 86 120
452 1 94 120
453 1 112 120
454 1 3 121
455 1 14 121
456 1 42 121
457 1 46 121
458 1 54 121
459 1 85 121
460 1 93 121
461 1 114 121
462 1 1 122
463 1 12 122
464 1 36 122
465 1 49 122
466 1 56 122
467 1 80 122
468 1 113 122
469 1 58 124
470 1 61 124
471 1 63 124
472 1 66 124
473 1 70 124
474 1 71 124
475 1 75 124
476 1 77 124
477 1 79 124
478 1 82 124
479 1 97 124
480 1 98 124
481 1 102 124
482 1 103 124
483 1 106 124
484 1 123 124
485 1 45 125
486 1 48 125
487 1 57 125
488 1 71 125
489 1 74 125
490 1 76 125
491 1 79 125
492 1 83 125
493 1 97 125
494 1 100 125
495 1 102 125
496 1 105 125
497 1 123 125
498 1 124 125
499 1 45 126
500 1 47 126
501 1 48 126
502 1 50 126
503 1 52 126
504 1 87 126
505 1 89 126
506 1 96 126
507 1 97 126
508 1 101 126
509 1 105 126
510 1 108 126
511 1 123 126
512 1 125 126
513 1 45 127
514 1 48 127
515 1 49 127
516 1 51 127
517 1 53 127
518 1 71 127
519 1 72 127
520 1 76 127
521 1 78 127
522 1 80 127
523 1 113 127
524 1 115 127
525 1 118 127
526 1 122 127
527 1 123 127
528 1 125 127
529 1 126 127
530 1 58 128
531 1 60 128
532 1 63 128
533 1 65 128
534 1 68 128
535 1 88 128
536 1 90 128
537 1 92 128
538 1 95 128
539 1 97 128
540 1 99 128
541 1 101 128
542 1 103 128
543 1 104 128
544 1 107 128
545 1 123 128
546 1 124 128
547 1 125 128
548 1 126 128
549 1 58 129
550 1 59 129
551 1 65 129
552 1 84 129
553 1 86 129
554 1 90 129
555 1 91 129
556 1 94 129
557 1 112 129
558 1 117 129
559 1 120 129
560 1 123 129
561 1 128 129
562 1 58 130
563 1 59 130
564 1 62 130
565 1 64 130
566 1 66 130
567 1 71 130
568 1 73 130
569 1 77 130
570 1 78 130
571 1 81 130
572 1 111 130
573 1 115 130
574 1 116 130
575 1 119 130
576 1 123 130
577 1 124 130
578 1 125 130
579 1 127 130
580 1 128 130
581 1 129 130
582 1 45 131
583 1 46 131
584 1 51 131
585 1 52 131
586 1 54 131
587 1 84 131
588 1 85 131
589 1 89 131
590 1 91 131
591 1 93 131
592 1 110 131
593 1 114 131
594 1 117 131
595 1 118 131
596 1 121 131
597 1 123 131
598 1 126 131
599 1 127 131
600 1 129 131
601 1 59 132
602 1 64 132
603 1 110 132
604 1 111 132
605 1 112 132
606 1 113 132
607 1 115 132
608 1 116 132
609 1 117 132
610 1 118 132
611 1 123 132
612 1 127 132
613 1 129 132
614 1 130 132
615 1 131 132
616 1 84 133
617 1 87 133
618 1 88 133
619 1 89 133
620 1 90 133
621 1 92 133
622 1 101 133
623 1 104 133
624 1 123 133
625 1 126 133
626 1 128 133
627 1 129 133
628 1 131 133

Impropers

1 1 123 126 127 131
2 1 125 126 123 128
3 1 128 129 123 130
4 1 123 127 125 130
5 1 95 107 68 128
6 1 118 127 131 132
7 1 45 127 126 131
8 1 123 125 124 130
9 1 124 128 123 130
10 1 124 125 123 128
11 1 115 130 127 132
12 1 97 126 125 128
13 1 125 127 71 130
14 1 58 129 128 130
15 1 58 128 124 130
16 1 71 124 125 130
17 1 97 125 124 128
18 1 101 96 108 126
19 1 122 113 80 127
20 1 86 94 120 129
21 1 70 106 82 124
22 1 93 121 54 131
23 1 125 126 45 127
24 1 123 131 127 132
25 1 117 131 129 132
26 1 89 131 126 133
27 1 57 48 83 125
28 1 88 95 68 128
29 1 88 107 95 128
30 1 111 119 81 130
31 1 129 131 84 133
32 1 118 131 110 132
33 1 113 115 127 132
34 1 123 126 125 127
35 1 127 130 123 132
36 1 45 48 125 127
37 1 48 45 125 126
38 1 112 129 59 132
39 1 87 126 101 133
40 1 115 78 127 130
41 1 46 93 54 131
42 1 82 106 75 124
43 1 70 82 61 124
44 1 70 61 106 124
45 1 121 93 85 131
46 1 46 54 121 131
47 1 49 113 122 127
48 1 120 112 86 129
49 1 120 59 112 129
50 1 87 96 101 126
51 1 72 80 113 127
52 1 123 130 129 132
53 1 123 128 126 133
54 1 89 52 126 131
55 1 91 129 117 131
56 1 51 118 127 131
57 1 78 71 127 130
58 1 123 131 129 133
59 1 51 127 45 131
60 1 45 126 52 131
61 1 91 84 129 131
62 1 62 119 111 130
63 1 83 48 74 125
64 1 60 88 68 128
65 1 100 48 57 125
66 1 111 81 73 130
67 1 107 88 99 128
68 1 129 131 123 132
69 1 126 131 123 133
70 1 113 110 115 132
71 1 117 129 112 132
72 1 89 126 87 133
73 1 47 87 89 126
74 1 91 86 112 129
75 1 118 113 49 127
76 1 78 72 113 127
77 1 92 87 101 133
78 1 64 112 59 132
79 1 72 49 80 127
80 1 86 59 94 129
81 1 85 114 121 131
82 1 98 75 106 124
83 1 98 106 61 124
84 1 82 75 61 124
85 1 85 93 46 131
86 1 121 114 46 131
87 1 83 74 100 125
88 1 115 111 130 132
89 1 60 90 88 128
90 1 105 48 100 125
91 1 88 92 99 128
92 1 64 62 111 130
93 1 73 115 111 130
94 1 48 76 74 125
95 1 91 112 117 129
96 1 89 52 47 126
97 1 113 115 78 127
98 1 49 51 118 127
99 1 101 104 92 133
100 1 116 112 64 132
101 1 101 39 108 96
102 1 12 122 56 49
103 1 83 57 9 48
104 1 33 109 83 100
105 1 85 93 121 42
106 1 54 14 46 121
107 1 119 69 62 24
108 1 94 120 44 86
109 1 95 27 88 68
110 1 109 57 100 18
111 1 35 75 82 106
112 1 67 94 29 59
113 1 67 26 120 59
114 1 61 30 70 106
115 1 88 107 41 95
116 1 93 17 46 54
117 1 56 80 11 49
118 1 111 38 81 119
119 1 80 122 36 113
120 1 82 61 21 70
121 1 102 124 97 125
122 1 58 63 124 128
123 1 77 124 71 130
124 1 71 124 79 125
125 1 97 124 103 128
126 1 58 124 66 130
127 1 111 116 130 132
128 1 92 128 88 133
129 1 90 128 65 129
130 1 116 64 130 132
131 1 104 128 92 133
132 1 48 50 45 126
133 1 45 53 48 127
134 1 110 131 117 132
135 1 89 84 131 133
136 1 90 60 65 128
137 1 64 111 116 130
138 1 115 73 78 130
139 1 99 92 104 128
140 1 105 125 97 126
141 1 76 71 125 127
142 1 65 128 58 129
143 1 85 117 114 131
144 1 79 75 98 124
145 1 63 98 61 124
146 1 75 66 61 124
147 1 46 52 85 131
148 1 114 51 46 131
149 1 60 99 63 128
150 1 77 73 62 130
151 1 102 100 74 125
152 1 47 105 101 126
153 1 59 86 90 129
154 1 49 72 76 127
155 1 123 129 128 133
156 1 85 91 117 131
157 1 103 98 63 124
158 1 85 52 89 131
159 1 102 79 98 124
160 1 118 51 114 131
161 1 77 66 75 124
162 1 62 111 119 24
163 1 112 44 120 86
164 1 26 112 120 59
165 1 42 121 85 114
166 1 14 46 121 114
167 1 36 72 80 113
168 1 86 29 94 59
169 1 60 88 27 68
170 1 75 35 98 106
171 1 30 61 98 106
172 1 74 83 9 48
173 1 83 74 33 100
174 1 12 122 49 113
175 1 111 38 73 81
176 1 107 88 41 99
177 1 48 100 57 18
178 1 46 85 17 93
179 1 49 80 11 72
180 1 96 101 39 87
181 1 61 82 21 75
182 1 79 124 102 125
183 1 103 124 63 128
184 1 66 124 77 130
185 1 63 61 58 124
186 1 61 66 58 124
187 1 77 75 71 124
188 1 117 110 114 131
189 1 114 110 118 131
190 1 79 71 75 124
191 1 46 51 45 131
192 1 97 98 103 124
193 1 91 85 84 131
194 1 102 98 97 124
195 1 45 52 46 131
196 1 85 89 84 131
197 1 84 90 129 133
198 1 99 103 63 128
199 1 74 79 102 125
200 1 62 66 77 130
201 1 78 71 72 127
202 1 84 86 91 129
203 1 49 45 51 127
204 1 47 52 45 126
205 1 47 50 105 126
206 1 53 49 76 127
207 1 90 65 59 129
208 1 76 71 74 125
209 1 64 58 62 130
210 1 105 100 97 125
211 1 99 104 97 128
212 1 78 73 71 130
213 1 60 58 65 128
214 1 117 42 85 114
215 1 59 86 29 90
216 1 24 62 111 64
217 1 9 76 74 48
218 1 11 76 49 72
219 1 72 36 78 113
220 1 38 115 111 73
221 1 112 26 64 59
222 1 44 112 91 86
223 1 32 60 99 63
224 1 23 73 62 77
225 1 66 75 61 21
226 1 87 101 39 92
227 1 87 89 15 47
228 1 20 105 101 47
229 1 14 46 114 51
230 1 49 118 12 113
231 1 27 88 60 90
232 1 63 30 61 98
233 1 92 41 88 99
234 1 18 48 100 105
235 1 17 85 46 52
236 1 74 33 100 102
237 1 79 35 98 75
238 1 115 110 111 132
239 1 84 88 90 133
240 1 102 97 100 125
241 1 71 79 74 125
242 1 58 60 63 128
243 1 99 97 103 128
244 1 58 66 62 130
245 1 77 71 73 130
246 1 99 103 32 63
247 1 47 89 15 52
248 1 27 60 65 90
249 1 91 42 85 117
250 1 116 24 111 64
251 1 17 89 85 52
252 1 9 76 48 53
253 1 38 78 115 73
254 1 36 78 113 115
255 1 104 41 92 99
256 1 11 76 53 49
257 1 105 18 48 50
258 1 101 104 39 92
259 1 91 117 112 44
260 1 66 77 75 21
261 1 30 63 103 98
262 1 74 33 102 79
263 1 51 118 12 49
264 1 105 20 50 47
265 1 26 64 116 112
266 1 98 102 35 79
267 1 77 62 23 66
268 1 118 14 114 51
269 1 59 29 65 90
270 1 47 45 50 126
271 1 105 97 101 126
272 1 76 72 71 127
273 1 84 90 86 129
274 1 53 45 49 127
275 1 65 58 59 129
276 1 89 87 84 133
277 1 110 117 112 132
278 1 34 102 33 79
279 1 10 11 76 53
280 1 65 28 27 90
281 1 34 35 102 79
282 1 104 40 39 92
283 1 18 105 19 50
284 1 20 19 105 50
285 1 17 16 89 52
286 1 89 16 15 52
287 1 38 115 78 37
288 1 117 91 42 43
289 1 103 31 63 30
290 1 22 77 66 21
291 1 36 78 115 37
292 1 76 9 10 53
293 1 64 116 24 25
294 1 28 65 29 90
295 1 40 104 41 92
296 1 118 13 14 51
297 1 12 13 118 51
298 1 117 91 43 44
299 1 31 32 103 63
300 1 77 23 22 66
301 1 25 64 116 26
302 1 111 110 116 132
303 1 92 88 84 133
304 1 92 84 87 133
305 1 116 110 112 132
306 1 67 120 7 94
307 1 54 93 3 121
308 1 68 95 8 107
309 1 5 69 81 119
310 1 1 122 80 56
311 1 6 82 70 106
312 1 55 108 4 96
313 1 2 109 57 83
314 1 108 39 4 96
315 1 82 21 6 70
316 1 80 122 1 36
317 1 120 44 7 94
318 1 120 7 26 67
319 1 4 15 55 96
320 1 121 93 3 42
321 1 1 12 122 56
322 1 119 5 69 24
323 1 69 23 5 81
324 1 107 95 8 41
325 1 8 27 95 68
326 1 8 68 107 32
327 1 70 30 6 106
328 1 2 109 83 33
329 1 57 109 2 18
330 1 57 9 2 83
331 1 108 4 20 55
332 1 54 3 14 121
333 1 3 17 93 54
334 1 80 11 1 56
335 1 81 38 5 119
336 1 7 67 94 29
337 1 6 35 82 106
338 1 132 113 118 127
339 1 132 118 113 110
340 1 126 47 108 101
341 1 20 47 108 55
342 1 20 108 47 101
343 1 59 94 120 67
344 1 59 120 94 129
345 1 49 80 122 56
346 1 122 80 49 127
347 1 100 83 57 109
348 1 100 57 83 125
349 1 133 101 128 126
350 1 133 128 101 104
351 1 97 128 101 126
352 1 97 101 128 104
353 1 59 132 130 64
354 1 130 132 59 129
355 1 130 58 59 64
356 1 59 58 130 129
357 1 90 128 133 88
358 1 90 133 128 129
359 1 126 48 105 125
360 1 126 105 48 50
361 1 127 48 76 53
362 1 127 76 48 125
363 1 47 126 96 87
364 1 47 15 96 55
365 1 96 15 47 87
366 1 68 128 99 60
367 1 99 128 68 107
368 1 99 32 68 60
369 1 68 32 99 107
370 1 47 108 96 126
371 1 47 96 108 55
372 1 81 23 62 69
373 1 62 23 81 73
374 1 81 130 62 73
375 1 62 81 119 130
376 1 119 81 62 69

