LAMMPS data file for tetmsm

756 atoms
4136 bonds
2841 impropers

2 atom types
1 bond types
1 improper types

-0.5 1.5 xlo xhi
-0.5 1.5 ylo yhi
-0.5 1.5 zlo zhi

Masses

1 1.0
2 1.0

Atoms  # hybrid full sphere

1 2 0 0 1 1 0 0 0.2236920094737716
2 2 0 0 0 1 0 0 0.2236920094737715
3 2 0 1 1 1 0 0 0.2236920094737715
4 2 0 1 0 1 0 0 0.2236920094737716
5 2 1 0 1 1 0 0 0.2236920094737715
6 2 1 0 0 1 0 0 0.2236920094737716
7 2 1 1 1 1 0 0 0.2236920094737712
8 2 1 1 0 1 0 0 0.2236920094737715
9 2 0 0 0.125 1 0 0 0.130420020106417
10 2 0 0 0.25 1 0 0 0.1373534897348333
11 2 0 0 0.375 1 0 0 0.370575097287578
12 2 0 0 0.5 1 0 0 0.1422463348202307
13 2 0 0 0.625 1 0 0 0.4312901041145469
14 2 0 0 0.75 1 0 0 0.1536196523619271
15 2 0 0 0.875 1 0 0 0.1319147678439867
16 2 0 0.125 1 1 0 0 0.130533082700641
17 2 0 0.25 1 1 0 0 0.1368714740429262
18 2 0 0.375 1 1 0 0 0.5906988151996937
19 2 0 0.5 1 1 0 0 0.145339547457944
20 2 0 0.625 1 1 0 0 0.6423610109608447
21 2 0 0.75 1 1 0 0 0.1435979649583994
22 2 0 0.875 1 1 0 0 0.1313402952640177
23 2 0 1 0.125 1 0 0 0.1312146999585082
24 2 0 1 0.25 1 0 0 0.1428517237468711
25 2 0 1 0.375 1 0 0 0.5614429958292411
26 2 0 1 0.5 1 0 0 0.1451750127932326
27 2 0 1 0.625 1 0 0 0.472205921251352
28 2 0 1 0.75 1 0 0 0.1463078996337191
29 2 0 1 0.875 1 0 0 0.1314497360371061
30 2 0 0.125 0 1 0 0 0.1305118150449296
31 2 0 0.25 0 1 0 0 0.1369641727689371
32 2 0 0.375 0 1 0 0 0.3711000474423874
33 2 0 0.5 0 1 0 0 0.1638416250742213
34 2 0 0.625 0 1 0 0 0.4491698998184293
35 2 0 0.75 0 1 0 0 0.1447333042858252
36 2 0 0.875 0 1 0 0 0.1314339024244779
37 2 1 0 0.125 1 0 0 0.130533082700641
38 2 1 0 0.25 1 0 0 0.1368714740429262
39 2 1 0 0.375 1 0 0 0.3773581775707774
40 2 1 0 0.5 1 0 0 0.145339547457944
41 2 1 0 0.625 1 0 0 0.4243846443490233
42 2 1 0 0.75 1 0 0 0.1435979649583994
43 2 1 0 0.875 1 0 0 0.1313402952640177
44 2 1 0.125 1 1 0 0 0.1313297547634574
45 2 1 0.25 1 1 0 0 0.1437462060408371
46 2 1 0.375 1 1 0 0 0.56796191122567
47 2 1 0.5 1 1 0 0 0.1455464078297907
48 2 1 0.625 1 1 0 0 0.5446112653643717
49 2 1 0.75 1 1 0 0 0.1362582208772986
50 2 1 0.875 1 1 0 0 0.13041338032525
51 2 1 1 0.125 1 0 0 0.1313297547634573
52 2 1 1 0.25 1 0 0 0.1437462060408371
53 2 1 1 0.375 1 0 0 0.397902955897184
54 2 1 1 0.5 1 0 0 0.1455464078297907
55 2 1 1 0.625 1 0 0 0.3683464132783998
56 2 1 1 0.75 1 0 0 0.1362582208772986
57 2 1 1 0.875 1 0 0 0.13041338032525
58 2 1 0.125 0 1 0 0 0.1313081123626582
59 2 1 0.25 0 1 0 0 0.1438433776475729
60 2 1 0.375 0 1 0 0 0.5101667562340465
61 2 1 0.5 0 1 0 0 0.1716991240329235
62 2 1 0.625 0 1 0 0 0.3866424388279689
63 2 1 0.75 0 1 0 0 0.1355000483075526
64 2 1 0.875 0 1 0 0 0.1304195669986643
65 2 0.125 0 0 1 0 0 0.1304273585507851
66 2 0.25 0 0 1 0 0 0.1353474762077033
67 2 0.375 0 0 1 0 0 0.3556514089085731
68 2 0.5 0 0 1 0 0 0.1418795090524471
69 2 0.625 0 0 1 0 0 0.6389177201333355
70 2 0.75 0 0 1 0 0 0.1542671263830191
71 2 0.875 0 0 1 0 0 0.1319147678439867
72 2 0.125 0 1 1 0 0 0.1313081123626582
73 2 0.25 0 1 1 0 0 0.1438433776475729
74 2 0.375 0 1 1 0 0 0.494468930280349
75 2 0.5 0 1 1 0 0 0.1451750127932326
76 2 0.625 0 1 1 0 0 0.3713209826219456
77 2 0.75 0 1 1 0 0 0.1437316680688461
78 2 0.875 0 1 1 0 0 0.1314497360371061
79 2 0.125 1 0 1 0 0 0.1304396800181933
80 2 0.25 1 0 1 0 0 0.1351640059226764
81 2 0.375 1 0 1 0 0 0.3684823346624427
82 2 0.5 1 0 1 0 0 0.1447135865614669
83 2 0.625 1 0 1 0 0 0.4243846443490233
84 2 0.75 1 0 1 0 0 0.1452593263218623
85 2 0.875 1 0 1 0 0 0.1313402952640177
86 2 0.125 1 1 1 0 0 0.1313297547634574
87 2 0.25 1 1 1 0 0 0.1437462060408371
88 2 0.375 1 1 1 0 0 0.3979029558971846
89 2 0.5 1 1 1 0 0 0.1455464078297907
90 2 0.625 1 1 1 0 0 0.3683464132783998
91 2 0.75 1 1 1 0 0 0.1362582208772986
92 2 0.875 1 1 1 0 0 0.13041338032525
93 2 0 0.5 0.5 1 0 0 0.8672219098343735
94 2 0 0.6983798211004562 0.707617347317786 1 0 0 0.7785515317525493
95 2 0 0.6870247364513361 0.3009402187620044 1 0 0 0.6244434843551725
96 2 0 0.291256821833245 0.2970090436859656 1 0 0 0.7826480924305635
97 2 0 0.2939501447846762 0.6969578595810634 1 0 0 0.5528266430635681
98 2 0 0.4910047178297994 0.2185416431100996 1 0 0 1.156680127892888
99 2 0 0.4948097379379455 0.7920979490776482 1 0 0 1.084032515702348
100 2 0 0.7948420631162881 0.5029499583688751 1 0 0 0.8031787555486002
101 2 0 0.2100927420189095 0.4939647459865085 1 0 0 0.8819438282587402
102 2 0 0.170096197719966 0.1680679898365368 1 0 0 0.4176358130640356
103 2 0 0.8319320101634629 0.8299038022800338 1 0 0 0.6605651197799427
104 2 0 0.8299038022800339 0.1680679898365369 1 0 0 0.9376408811023837
105 2 0 0.1700961977199661 0.8319320101634631 1 0 0 0.4599959953326741
106 2 0 0.431547619047619 0.3601190476190477 1 0 0 0.9239036431245149
107 2 0 0.6217473672030124 0.4296252650724226 1 0 0 1.054891227545919
108 2 0 0.4316917837097862 0.6467903771521046 1 0 0 1.374587276983667
109 2 0 0.3655534209395473 0.848006519324132 1 0 0 0.9241009935039119
110 2 0 0.8463289161818572 0.6392345399698343 1 0 0 0.6148236350695609
111 2 0 0.6392345399698343 0.8463289161818572 1 0 0 1.107681780766547
112 2 0 0.8485594184412457 0.3664038963962892 1 0 0 1.063209399617609
113 2 0 0.3607654600301659 0.1536710838181426 1 0 0 1.506001284148252
114 2 0 0.1573998270019044 0.3606122671274296 1 0 0 1.413795480579324
115 2 0 0.1693980637088182 0.63363326741481 1 0 0 1.486532271056589
116 2 0 0.639234539969834 0.1536710838181427 1 0 0 1.513436377080322
117 2 0 0.6223612254109369 0.5779237020226387 1 0 0 1.472447277849384
118 2 0 0.3601190476190476 0.4817629179331308 1 0 0 0.7780308233037606
119 2 0 0.5575929016345296 0.3230168280332637 1 0 0 0.725851417308212
120 2 0 0.5686900580612511 0.6950010602827552 1 0 0 1.335353184399837
121 2 0 0.3146273421439517 0.5836465173567362 1 0 0 1.122903952849931
122 2 0 0.9057373582825856 0.4634480005553926 1 0 0 0.4956367367988062
123 2 0 0.09249853681381336 0.5374100682724209 1 0 0 0.8382865055004693
124 2 0 0.4601821661833413 0.9114205180120882 1 0 0 0.7226854864018345
125 2 0 0.5378363673557656 0.1114755687639223 1 0 0 0.5206707658392163
126 2 0 0.2788082659533109 0.4036696367622235 1 0 0 1.122760399551132
127 2 0 0.7398491454100192 0.6073470807817024 1 0 0 0.4930451467317052
128 2 0 0.09999423687279796 0.2652633613752672 1 0 0 0.8125419882663706
129 2 0 0.2695909645635486 0.09836094605874508 1 0 0 0.848742103117208
130 2 0 0.7304090354364512 0.09836094605874514 1 0 0 1.157432938097769
131 2 0 0.2703889580484456 0.9019186544649673 1 0 0 0.6742132173228379
132 2 0 0.7347111064742765 0.9006272203244954 1 0 0 0.5602229923442277
133 2 0 0.9016390539412547 0.7304090354364514 1 0 0 0.8384241382395192
134 2 0 0.1072436341078131 0.7379121464847885 1 0 0 1.055603362430743
135 2 0 0.8935354458827317 0.2620894658560373 1 0 0 0.4808811719955094
136 2 0 0.7427817280758455 0.395213854772678 1 0 0 1.113746996042053
137 2 0 0.3889039659111644 0.2542467936856885 1 0 0 0.7501855373244741
138 2 0 0.3849362932558237 0.7502687134785011 1 0 0 1.049139660880526
139 2 0 0.5213389554099197 0.5978030848241209 1 0 0 0.429639704274792
140 2 0 0.5544750275387089 0.9134120782890987 1 0 0 0.8227837022349593
141 2 0 0.9131121756675821 0.5556389106818703 1 0 0 0.786365003144494
142 2 0 0.08628042893375396 0.4413565146650448 1 0 0 0.6583719168269314
143 2 0 0.4438752774926025 0.0900099297684278 1 0 0 0.7319983081032138
144 2 0 0.5257616754076001 0.4016007347657253 1 0 0 0.2657479447149685
145 2 0 0.9028848755411256 0.9028848755411256 1 0 0 0.7318646613557694
146 2 0 0.9028848755411255 0.09711512445887442 1 0 0 0.6544370934100141
147 2 0 0.09711512445887446 0.9028848755411255 1 0 0 0.5952098157297095
148 2 0 0.09711512445887444 0.09711512445887444 1 0 0 0.745218108920737
149 2 0 0.2037171812001912 0.7434899084729183 1 0 0 0.2372723420476516
150 2 0 0.7409166180649929 0.8008365952467136 1 0 0 0.2656682315257292
151 2 0 0.1998082786597035 0.2581254098816529 1 0 0 0.4929552016022093
152 2 0 0.7869184702100981 0.2820649688344351 1 0 0 0.7213892749933762
153 2 0 0.6995115548932054 0.5051193580156709 1 0 0 1.064617604612109
154 2 0 0.7931742608103406 0.7192247335054202 1 0 0 1.09121295788787
155 2 0 0.2801800096575233 0.202347426725611 1 0 0 1.027853935987766
156 2 0 0.2808790323812356 0.7978273124284515 1 0 0 0.8812404691395419
157 2 0 0.7104419558054756 0.2051564419806309 1 0 0 1.186705688780839
158 2 0 0.4240649009990382 0.5555202643281159 1 0 0 0.8994939620005544
159 2 0 0.5891611504851009 0.2278334445739212 1 0 0 0.7916672385036991
160 2 0 0.8189055984357729 0.9266831796291308 1 0 0 0.4566354767142075
161 2 0 0.1825200560454573 0.9273471080339113 1 0 0 0.3392555808661584
162 2 0 0.9272911879291688 0.8176395426515222 1 0 0 0.4156378800875121
163 2 0 0.1823604573484778 0.07270881207083128 1 0 0 0.3420250035465194
164 2 0 0.8176395426515222 0.0727088120708313 1 0 0 0.4387263457397911
165 2 0 0.07344111181032768 0.1810892951341357 1 0 0 0.3970667298772265
166 2 0 0.07489099125733074 0.8195458064378754 1 0 0 0.3758114499155462
167 2 0 0.9252648247407782 0.1804545160302897 1 0 0 0.6749988126599714
168 2 1 0.5 0.5 1 0 0 1.046667937286394
169 2 1 0.6983798211004562 0.707617347317786 1 0 0 0.8890319807075926
170 2 1 0.6870247364513361 0.3009402187620044 1 0 0 1.210479330038327
171 2 1 0.291256821833245 0.2970090436859656 1 0 0 1.118981652037297
172 2 1 0.2939501447846762 0.6969578595810634 1 0 0 0.9408546381911247
173 2 1 0.4910047178297994 0.2185416431100996 1 0 0 1.083436172030242
174 2 1 0.4948097379379455 0.7920979490776482 1 0 0 1.573744495452908
175 2 1 0.7948420631162881 0.5029499583688751 1 0 0 0.9323218846479773
176 2 1 0.2100927420189095 0.4939647459865085 1 0 0 1.286251738625709
177 2 1 0.170096197719966 0.1680679898365368 1 0 0 0.6171705842626514
178 2 1 0.8319320101634629 0.8299038022800338 1 0 0 0.7718070180588597
179 2 1 0.8299038022800339 0.1680679898365369 1 0 0 0.3311186171998387
180 2 1 0.1700961977199661 0.8319320101634631 1 0 0 0.6096055950658457
181 2 1 0.431547619047619 0.3601190476190477 1 0 0 0.8741747102199108
182 2 1 0.6217473672030124 0.4296252650724226 1 0 0 0.9691292230667414
183 2 1 0.4316917837097862 0.6467903771521046 1 0 0 1.15146421505193
184 2 1 0.3655534209395473 0.848006519324132 1 0 0 0.531784722513159
185 2 1 0.8463289161818572 0.6392345399698343 1 0 0 1.12085622374838
186 2 1 0.6392345399698343 0.8463289161818572 1 0 0 0.7176465617198431
187 2 1 0.8485594184412457 0.3664038963962892 1 0 0 1.491880761994157
188 2 1 0.3607654600301659 0.1536710838181426 1 0 0 0.7117195199704016
189 2 1 0.1573998270019044 0.3606122671274296 1 0 0 1.081378506067166
190 2 1 0.1693980637088182 0.63363326741481 1 0 0 1.563821170287807
191 2 1 0.639234539969834 0.1536710838181427 1 0 0 1.184011360641278
192 2 1 0.6223612254109369 0.5779237020226387 1 0 0 1.140008940105549
193 2 1 0.3601190476190476 0.4817629179331308 1 0 0 1.536268838992733
194 2 1 0.5575929016345296 0.3230168280332637 1 0 0 0.3895054758868591
195 2 1 0.5686900580612511 0.6950010602827552 1 0 0 1.259162232991895
196 2 1 0.3146273421439517 0.5836465173567362 1 0 0 1.689476725545273
197 2 1 0.9057373582825856 0.4634480005553926 1 0 0 0.4937871891485679
198 2 1 0.09249853681381336 0.5374100682724209 1 0 0 0.5438504722294998
199 2 1 0.4601821661833413 0.9114205180120882 1 0 0 0.5536563280206608
200 2 1 0.5378363673557656 0.1114755687639223 1 0 0 0.5750527072124434
201 2 1 0.2788082659533109 0.4036696367622235 1 0 0 1.334486503172876
202 2 1 0.7398491454100192 0.6073470807817024 1 0 0 1.011798131112632
203 2 1 0.09999423687279796 0.2652633613752672 1 0 0 0.6436400530338491
204 2 1 0.2695909645635486 0.09836094605874508 1 0 0 0.5504271671538129
205 2 1 0.7304090354364512 0.09836094605874514 1 0 0 0.7214702485492634
206 2 1 0.2703889580484456 0.9019186544649673 1 0 0 1.494230415484835
207 2 1 0.7347111064742765 0.9006272203244954 1 0 0 1.022677463413167
208 2 1 0.9016390539412547 0.7304090354364514 1 0 0 0.8742187742527197
209 2 1 0.1072436341078131 0.7379121464847885 1 0 0 1.111124988333534
210 2 1 0.8935354458827317 0.2620894658560373 1 0 0 1.335495937012545
211 2 1 0.7427817280758455 0.395213854772678 1 0 0 0.9688539593564862
212 2 1 0.3889039659111644 0.2542467936856885 1 0 0 0.6010274314844636
213 2 1 0.3849362932558237 0.7502687134785011 1 0 0 0.6872816723044681
214 2 1 0.5213389554099197 0.5978030848241209 1 0 0 0.3661659326637046
215 2 1 0.5544750275387089 0.9134120782890987 1 0 0 0.4525727002083753
216 2 1 0.9131121756675821 0.5556389106818703 1 0 0 0.3833370288807616
217 2 1 0.08628042893375396 0.4413565146650448 1 0 0 0.8464287224813138
218 2 1 0.4438752774926025 0.0900099297684278 1 0 0 0.8473171126820476
219 2 1 0.5257616754076001 0.4016007347657253 1 0 0 0.9623857230424658
220 2 1 0.9028848755411256 0.9028848755411256 1 0 0 0.7006327230420246
221 2 1 0.9028848755411255 0.09711512445887442 1 0 0 0.5641707157311069
222 2 1 0.09711512445887446 0.9028848755411255 1 0 0 0.588194939990526
223 2 1 0.09711512445887444 0.09711512445887444 1 0 0 0.6082210520950667
224 2 1 0.2037171812001912 0.7434899084729183 1 0 0 1.04237348428855
225 2 1 0.7409166180649929 0.8008365952467136 1 0 0 0.456366090177912
226 2 1 0.1998082786597035 0.2581254098816529 1 0 0 0.3285411333798468
227 2 1 0.7869184702100981 0.2820649688344351 1 0 0 1.004015353657079
228 2 1 0.6995115548932054 0.5051193580156709 1 0 0 0.8282681354991478
229 2 1 0.7931742608103406 0.7192247335054202 1 0 0 0.2935960994551988
230 2 1 0.2801800096575233 0.202347426725611 1 0 0 0.3616463400432868
231 2 1 0.2808790323812356 0.7978273124284515 1 0 0 0.5808428280763311
232 2 1 0.7104419558054756 0.2051564419806309 1 0 0 0.7155500786331797
233 2 1 0.4240649009990382 0.5555202643281159 1 0 0 0.5568177730813614
234 2 1 0.5891611504851009 0.2278334445739212 1 0 0 0.7599449925975864
235 2 1 0.8189055984357729 0.9266831796291308 1 0 0 0.4233069512636124
236 2 1 0.1825200560454573 0.9273471080339113 1 0 0 0.3867271227471323
237 2 1 0.9272911879291688 0.8176395426515222 1 0 0 0.4360792706388928
238 2 1 0.1823604573484778 0.07270881207083128 1 0 0 0.5328022541809015
239 2 1 0.8176395426515222 0.0727088120708313 1 0 0 0.334619701271873
240 2 1 0.07344111181032768 0.1810892951341357 1 0 0 0.331205654177446
241 2 1 0.07489099125733074 0.8195458064378754 1 0 0 0.4636875969595418
242 2 1 0.9252648247407782 0.1804545160302897 1 0 0 0.3481392410325252
243 2 0.5 0 0.5 1 0 0 0.7215256949564909
244 2 0.2995765707965655 0 0.6968635605026341 1 0 0 0.7361258706506795
245 2 0.707617347317786 0 0.6983798211004563 1 0 0 0.8677547121929204
246 2 0.2964304538139001 0 0.3022198182330362 1 0 0 0.6821514009317842
247 2 0.6969578595810634 0 0.2939501447846762 1 0 0 0.7015263767438741
248 2 0.20973436662213 0 0.5013201056705466 1 0 0 1.095448506442731
249 2 0.7920979490776482 0 0.4948097379379455 1 0 0 1.180747740086582
250 2 0.5029499583688752 0 0.7948420631162882 1 0 0 1.216370175509126
251 2 0.4939647459865085 0 0.2100927420189095 1 0 0 1.230039841696617
252 2 0.170096197719966 0 0.1680679898365368 1 0 0 0.4644013009542988
253 2 0.1680679898365369 0 0.8299038022800338 1 0 0 1.130019932166389
254 2 0.8299038022800338 0 0.8319320101634629 1 0 0 0.5520252534784346
255 2 0.8319320101634631 0 0.1700961977199661 1 0 0 0.4796601828601314
256 2 0.3583719295517623 0 0.4307435446698814 1 0 0 1.206454345542445
257 2 0.429430458220217 0 0.6231529134960551 1 0 0 1.016472124512159
258 2 0.6467903771521046 0 0.4316917837097862 1 0 0 0.8412904007660393
259 2 0.3664038963962894 0 0.8485594184412455 1 0 0 1.260201677716927
260 2 0.848006519324132 0 0.3655534209395473 1 0 0 0.9586993616562496
261 2 0.8463289161818572 0 0.6392345399698343 1 0 0 1.190587964983148
262 2 0.6392345399698343 0 0.8463289161818572 1 0 0 1.148321436350279
263 2 0.1536710838181426 0 0.3607654600301659 1 0 0 1.304499631136871
264 2 0.3643846592224148 0 0.151876772718208 1 0 0 1.42525758607572
265 2 0.1452624928746858 0 0.6252574266267632 1 0 0 1.573140853385703
266 2 0.63363326741481 0 0.1693980637088182 1 0 0 1.551047687913005
267 2 0.5778958724723235 0 0.6225620177385144 1 0 0 0.8778995860783946
268 2 0.4817629179331308 0 0.3601190476190476 1 0 0 1.259881163130815
269 2 0.3187844176676468 0 0.5793449717354668 1 0 0 1.591903328090786
270 2 0.6949964220243695 0 0.5687235234491808 1 0 0 1.47499121001008
271 2 0.5836465173567362 0 0.3146273421439517 1 0 0 1.252126130529647
272 2 0.5374100682724209 0 0.09249853681381336 1 0 0 0.5960205544054961
273 2 0.9114205180120882 0 0.4601821661833413 1 0 0 0.7597321257881393
274 2 0.4634480005553928 0 0.9057373582825856 1 0 0 0.4937630057192118
275 2 0.08759974756763099 0 0.5372059720516192 1 0 0 0.4909192266228722
276 2 0.4036696367622235 0 0.2788082659533109 1 0 0 1.562082719223824
277 2 0.6073437677399982 0 0.7398730492585404 1 0 0 1.281992912705997
278 2 0.2620894658560375 0 0.8935354458827317 1 0 0 0.5365685549425686
279 2 0.0993727796755043 0 0.2652888935257233 1 0 0 0.6158728406151366
280 2 0.2701941644289234 0 0.098061894208756 1 0 0 0.5885593795270231
281 2 0.1090910760831778 0 0.7393671666974677 1 0 0 0.831642382481991
282 2 0.9019186544649673 0 0.2703889580484456 1 0 0 0.8328931858131207
283 2 0.9006272203244954 0 0.7347111064742765 1 0 0 0.7265927534505332
284 2 0.7304090354364514 0 0.9016390539412547 1 0 0 0.957435160762406
285 2 0.7379121464847885 0 0.1072436341078131 1 0 0 0.5735543863641496
286 2 0.2538776667276401 0 0.3887316466441548 1 0 0 0.3949294636960864
287 2 0.7502687134785011 0 0.3849362932558237 1 0 0 1.042681708574188
288 2 0.3952138547726781 0 0.7427817280758455 1 0 0 0.5592802703983355
289 2 0.5978013944967209 0 0.5213511512510018 1 0 0 0.7717268580974677
290 2 0.9134120782890987 0 0.5544750275387089 1 0 0 0.6339874363771479
291 2 0.4445031273156242 0 0.08702827220299578 1 0 0 0.4446298059804072
292 2 0.0848758790858835 0 0.4397641718773002 1 0 0 0.376695474328706
293 2 0.5556389106818703 0 0.9131121756675821 1 0 0 0.563421212113088
294 2 0.4010413490620872 0 0.5250718187903104 1 0 0 0.9010145466190236
295 2 0.09711512445887442 0 0.9028848755411255 1 0 0 0.6554887833923264
296 2 0.9028848755411256 0 0.9028848755411256 1 0 0 0.6367376522342174
297 2 0.9028848755411255 0 0.09711512445887446 1 0 0 0.5953034016586144
298 2 0.09711512445887444 0 0.09711512445887444 1 0 0 0.9913308665367058
299 2 0.7434899084729183 0 0.2037171812001912 1 0 0 0.6042609863282518
300 2 0.8008365952467137 0 0.7409166180649929 1 0 0 0.3331357171576038
301 2 0.2089570819376262 0 0.2807913659421136 1 0 0 0.6134236249576939
302 2 0.2818376941735287 0 0.7885582742186475 1 0 0 0.6894792912307985
303 2 0.5050870795236387 0 0.6997444466745114 1 0 0 0.8216109984704694
304 2 0.2840998259017267 0 0.2094100757870616 1 0 0 1.460736353474045
305 2 0.719224181331803 0 0.7931782447850939 1 0 0 0.9281558195566266
306 2 0.7978273124284515 0 0.2808790323812356 1 0 0 0.9436426825078481
307 2 0.2077986505508647 0 0.7188698443550667 1 0 0 1.266980776090354
308 2 0.5555200918457281 0 0.424066145472618 1 0 0 0.3881717302060769
309 2 0.2405053580252728 0 0.6300116732586594 1 0 0 0.5575764675232211
310 2 0.9266831796291308 0 0.8189055984357729 1 0 0 0.2565913403441324
311 2 0.9273471080339113 0 0.1825200560454573 1 0 0 0.3392720536093319
312 2 0.1804545160302898 0 0.9252648247407782 1 0 0 0.5972930110233066
313 2 0.8176395426515222 0 0.9272911879291688 1 0 0 0.2527343433468337
314 2 0.07331682037086895 0 0.1810944015642269 1 0 0 0.229497711481642
315 2 0.07485483807571783 0 0.8194311689037254 1 0 0 0.4389657536746621
316 2 0.1824810973215528 0 0.07264900170083345 1 0 0 0.3181008649838061
317 2 0.8195458064378754 0 0.07489099125733074 1 0 0 0.6660107251164781
318 2 0.5 1 0.5 1 0 0 0.6655551315280092
319 2 0.2995765707965655 1 0.6968635605026341 1 0 0 1.12993061948923
320 2 0.707617347317786 1 0.6983798211004563 1 0 0 0.8546520367509829
321 2 0.2964304538139001 1 0.3022198182330362 1 0 0 0.5266607916769878
322 2 0.6969578595810634 1 0.2939501447846762 1 0 0 0.6241113961459868
323 2 0.20973436662213 1 0.5013201056705466 1 0 0 0.929068124894608
324 2 0.7920979490776482 1 0.4948097379379455 1 0 0 1.103572668757416
325 2 0.5029499583688752 1 0.7948420631162882 1 0 0 1.246408097030887
326 2 0.4939647459865085 1 0.2100927420189095 1 0 0 1.270862177773472
327 2 0.170096197719966 1 0.1680679898365368 1 0 0 0.4853663018041628
328 2 0.1680679898365369 1 0.8299038022800338 1 0 0 0.577363202444573
329 2 0.8299038022800338 1 0.8319320101634629 1 0 0 0.7088339162783489
330 2 0.8319320101634631 1 0.1700961977199661 1 0 0 0.6513291058239756
331 2 0.3583719295517623 1 0.4307435446698814 1 0 0 1.099939740168984
332 2 0.429430458220217 1 0.6231529134960551 1 0 0 0.8715781957727138
333 2 0.6467903771521046 1 0.4316917837097862 1 0 0 1.495334884477704
334 2 0.3664038963962894 1 0.8485594184412455 1 0 0 1.637531295657772
335 2 0.848006519324132 1 0.3655534209395473 1 0 0 0.9074255898267524
336 2 0.8463289161818572 1 0.6392345399698343 1 0 0 1.64545199802224
337 2 0.6392345399698343 1 0.8463289161818572 1 0 0 1.061557204457714
338 2 0.1536710838181426 1 0.3607654600301659 1 0 0 0.7588145579493969
339 2 0.3643846592224148 1 0.151876772718208 1 0 0 1.307815806008537
340 2 0.1452624928746858 1 0.6252574266267632 1 0 0 1.181907330439279
341 2 0.63363326741481 1 0.1693980637088182 1 0 0 1.652518506803205
342 2 0.5778958724723235 1 0.6225620177385144 1 0 0 1.203430378864258
343 2 0.4817629179331308 1 0.3601190476190476 1 0 0 1.417876844859016
344 2 0.3187844176676468 1 0.5793449717354668 1 0 0 1.063461107496578
345 2 0.6949964220243695 1 0.5687235234491808 1 0 0 1.087678788801185
346 2 0.5836465173567362 1 0.3146273421439517 1 0 0 1.494474787937321
347 2 0.5374100682724209 1 0.09249853681381336 1 0 0 0.8167509488982506
348 2 0.9114205180120882 1 0.4601821661833413 1 0 0 0.6144480427694604
349 2 0.4634480005553928 1 0.9057373582825856 1 0 0 0.5753627491886795
350 2 0.08759974756763099 1 0.5372059720516192 1 0 0 0.6112569287195431
351 2 0.4036696367622235 1 0.2788082659533109 1 0 0 1.290231471686076
352 2 0.6073437677399982 1 0.7398730492585404 1 0 0 1.027267563726848
353 2 0.2620894658560375 1 0.8935354458827317 1 0 0 0.6591399586491017
354 2 0.0993727796755043 1 0.2652888935257233 1 0 0 0.5342410277590443
355 2 0.2701941644289234 1 0.098061894208756 1 0 0 0.6958980397536066
356 2 0.1090910760831778 1 0.7393671666974677 1 0 0 0.761392553247964
357 2 0.9019186544649673 1 0.2703889580484456 1 0 0 1.239932687293353
358 2 0.9006272203244954 1 0.7347111064742765 1 0 0 0.9987939548501994
359 2 0.7304090354364514 1 0.9016390539412547 1 0 0 0.9017461733453846
360 2 0.7379121464847885 1 0.1072436341078131 1 0 0 1.337046490669579
361 2 0.2538776667276401 1 0.3887316466441548 1 0 0 1.001237536707517
362 2 0.7502687134785011 1 0.3849362932558237 1 0 0 0.6214410375852969
363 2 0.3952138547726781 1 0.7427817280758455 1 0 0 0.6317171710111902
364 2 0.5978013944967209 1 0.5213511512510018 1 0 0 0.4088697706905088
365 2 0.9134120782890987 1 0.5544750275387089 1 0 0 0.868738840022806
366 2 0.4445031273156242 1 0.08702827220299578 1 0 0 0.594520715122139
367 2 0.0848758790858835 1 0.4397641718773002 1 0 0 0.8087751122336819
368 2 0.5556389106818703 1 0.9131121756675821 1 0 0 0.4343975770234317
369 2 0.4010413490620872 1 0.5250718187903104 1 0 0 0.1859750226324521
370 2 0.09711512445887442 1 0.9028848755411255 1 0 0 0.5709182976808125
371 2 0.9028848755411256 1 0.9028848755411256 1 0 0 0.7006327230420246
372 2 0.9028848755411255 1 0.09711512445887446 1 0 0 0.6022831089508714
373 2 0.09711512445887444 1 0.09711512445887444 1 0 0 0.6063234295579918
374 2 0.7434899084729183 1 0.2037171812001912 1 0 0 1.008153747240973
375 2 0.8008365952467137 1 0.7409166180649929 1 0 0 0.2310152795944162
376 2 0.2089570819376262 1 0.2807913659421136 1 0 0 1.116697861886621
377 2 0.2818376941735287 1 0.7885582742186475 1 0 0 1.148164813827173
378 2 0.5050870795236387 1 0.6997444466745114 1 0 0 0.5235993134991288
379 2 0.2840998259017267 1 0.2094100757870616 1 0 0 1.091087136745209
380 2 0.719224181331803 1 0.7931782447850939 1 0 0 0.4719853062996139
381 2 0.7978273124284515 1 0.2808790323812356 1 0 0 0.4890683679021712
382 2 0.2077986505508647 1 0.7188698443550667 1 0 0 0.420530273364524
383 2 0.5555200918457281 1 0.424066145472618 1 0 0 0.5024267892534567
384 2 0.2405053580252728 1 0.6300116732586594 1 0 0 0.6763069038227982
385 2 0.9266831796291308 1 0.8189055984357729 1 0 0 0.4233069512636125
386 2 0.9273471080339113 1 0.1825200560454573 1 0 0 0.4002496385955315
387 2 0.1804545160302898 1 0.9252648247407782 1 0 0 0.5094506594889512
388 2 0.8176395426515222 1 0.9272911879291688 1 0 0 0.4360792706388928
389 2 0.07331682037086895 1 0.1810944015642269 1 0 0 0.4420937071474924
390 2 0.07485483807571783 1 0.8194311689037254 1 0 0 0.3888567570135003
391 2 0.1824810973215528 1 0.07264900170083345 1 0 0 0.3345382126370158
392 2 0.8195458064378754 1 0.07489099125733074 1 0 0 0.3721783552488459
393 2 0.5 0.5 0 1 0 0 0.7551820837655043
394 2 0.6968635605026341 0.2995765707965655 0 1 0 0 0.5439207730970883
395 2 0.6983798211004563 0.707617347317786 0 1 0 0 0.7823087523813864
396 2 0.291256821833245 0.2970090436859656 0 1 0 0 0.7377349239707943
397 2 0.2939501447846762 0.6969578595810634 0 1 0 0 0.8902310900628844
398 2 0.5013201056705466 0.20973436662213 0 1 0 0 1.568202528681867
399 2 0.7948420631162882 0.5029499583688752 0 1 0 0 0.7721085734289198
400 2 0.4948097379379455 0.7920979490776482 0 1 0 0 1.193159281085744
401 2 0.2100927420189095 0.4939647459865085 0 1 0 0 0.8378101227286368
402 2 0.170096197719966 0.1680679898365368 0 1 0 0 0.5804476892340018
403 2 0.8299038022800338 0.1680679898365369 0 1 0 0 0.9947576364043363
404 2 0.8319320101634629 0.8299038022800338 0 1 0 0 0.4915070384433011
405 2 0.1700961977199661 0.8319320101634631 0 1 0 0 0.3057673840573057
406 2 0.431547619047619 0.3601190476190477 0 1 0 0 1.909977945448048
407 2 0.6231529134960551 0.429430458220217 0 1 0 0 0.9405828717955038
408 2 0.4316917837097862 0.6467903771521046 0 1 0 0 0.9747111916878408
409 2 0.8485594184412455 0.3664038963962894 0 1 0 0 1.359104761272433
410 2 0.3655534209395473 0.848006519324132 0 1 0 0 0.9451424826269554
411 2 0.8463289161818572 0.6392345399698343 0 1 0 0 1.2003382307689
412 2 0.6392345399698343 0.8463289161818572 0 1 0 0 1.279841786397039
413 2 0.3607654600301659 0.1536710838181426 0 1 0 0 1.47123961794321
414 2 0.1573998270019044 0.3606122671274296 0 1 0 0 0.9832252136075219
415 2 0.1693980637088182 0.63363326741481 0 1 0 0 1.249633529066583
416 2 0.6252574266267632 0.1452624928746858 0 1 0 0 1.238318411669052
417 2 0.6225620177385144 0.5778958724723235 0 1 0 0 1.737337575261962
418 2 0.3601190476190476 0.4817629179331308 0 1 0 0 1.195505340741349
419 2 0.5793798562617813 0.3188602158622916 0 1 0 0 1.451402958994839
420 2 0.5687235234491808 0.6949964220243695 0 1 0 0 1.265651263160264
421 2 0.3146273421439517 0.5836465173567362 0 1 0 0 1.953207886862784
422 2 0.09249853681381336 0.5374100682724209 0 1 0 0 0.8222610492875465
423 2 0.9057373582825856 0.4634480005553928 0 1 0 0 0.51186160959756
424 2 0.4601821661833413 0.9114205180120882 0 1 0 0 0.5254838387058872
425 2 0.5372059720516192 0.08759974756763099 0 1 0 0 0.4604783588150955
426 2 0.2788082659533109 0.4036696367622235 0 1 0 0 0.8361953797521532
427 2 0.7398730492585404 0.6073437677399982 0 1 0 0 0.8770930432551585
428 2 0.8935354458827317 0.2620894658560375 0 1 0 0 0.5366117414188876
429 2 0.09999423687279796 0.2652633613752672 0 1 0 0 0.6561802651145778
430 2 0.2695909645635486 0.09836094605874508 0 1 0 0 0.4526118356550028
431 2 0.7393671666974677 0.1090910760831778 0 1 0 0 0.5537545142265354
432 2 0.9016390539412547 0.7304090354364514 0 1 0 0 1.255175949222485
433 2 0.2703889580484456 0.9019186544649673 0 1 0 0 0.7798663668193778
434 2 0.7347111064742765 0.9006272203244954 0 1 0 0 0.7184062136681623
435 2 0.1072436341078131 0.7379121464847885 0 1 0 0 1.349824108169569
436 2 0.3894410019295291 0.2537882724191345 0 1 0 0 0.8589892555657744
437 2 0.3849362932558237 0.7502687134785011 0 1 0 0 1.06920446341122
438 2 0.7427817280758455 0.3952138547726781 0 1 0 0 0.5416958969397782
439 2 0.5213511512510018 0.5978013944967209 0 1 0 0 0.7263580422897646
440 2 0.5544750275387089 0.9134120782890987 0 1 0 0 0.9198056812190103
441 2 0.08628042893375396 0.4413565146650448 0 1 0 0 1.01355247643273
442 2 0.4397641718773002 0.0848758790858835 0 1 0 0 0.5421116804996337
443 2 0.9131121756675821 0.5556389106818703 0 1 0 0 0.6192885798881881
444 2 0.5250718187903104 0.4010413490620872 0 1 0 0 0.8499325576519424
445 2 0.9028848755411255 0.09711512445887442 0 1 0 0 0.6556456667840963
446 2 0.9028848755411256 0.9028848755411256 0 1 0 0 0.5720051018469244
447 2 0.09711512445887446 0.9028848755411255 0 1 0 0 0.5947428182742091
448 2 0.09711512445887444 0.09711512445887444 0 1 0 0 0.6821519155112596
449 2 0.2037171812001912 0.7434899084729183 0 1 0 0 0.7900165503392756
450 2 0.7409166180649929 0.8008365952467137 0 1 0 0 0.233786301613565
451 2 0.1998082786597035 0.2581254098816529 0 1 0 0 0.5195407757564161
452 2 0.7885582742186475 0.2818376941735287 0 1 0 0 1.118095201513084
453 2 0.6997444466745114 0.5050870795236387 0 1 0 0 0.671358863753922
454 2 0.7931782447850939 0.719224181331803 0 1 0 0 0.7833302176182698
455 2 0.2802256759856155 0.2023084368219925 0 1 0 0 0.39602646671748
456 2 0.2808790323812356 0.7978273124284515 0 1 0 0 0.5260849586061214
457 2 0.7188698443550667 0.2077986505508647 0 1 0 0 0.2777480714869671
458 2 0.424066145472618 0.5555200918457281 0 1 0 0 0.3655284193418635
459 2 0.6300142158626182 0.2405108826750283 0 1 0 0 0.6868662048787932
460 2 0.8189055984357729 0.9266831796291308 0 1 0 0 0.3737062091749472
461 2 0.9252648247407782 0.1804545160302898 0 1 0 0 0.5974227550711011
462 2 0.1825200560454573 0.9273471080339113 0 1 0 0 0.3403140833075874
463 2 0.9272911879291688 0.8176395426515222 0 1 0 0 0.3243531376129399
464 2 0.1823604573484778 0.07270881207083128 0 1 0 0 0.3204905795528332
465 2 0.8194311689037254 0.07485483807571783 0 1 0 0 0.4917151376426596