LAMMPS data file for tetmsm

4321 atoms
26575 bonds
20181 impropers

2 atom types
1 bond types
1 improper types

-0.5 1.5 xlo xhi
-0.5 1.5 ylo yhi
-0.5 1.5 zlo zhi

Masses

1 1.0
2 1.0

Atoms  # hybrid full sphere

1 2 0 0 1 1 0 0 0.04219080068280268
2 2 0 0 0 1 0 0 0.04219080068280255
3 2 0 1 1 1 0 0 0.04219080068280283
4 2 0 1 0 1 0 0 0.04219080068280268
5 2 1 0 1 1 0 0 0.04219080068280283
6 2 1 0 0 1 0 0 0.04219080068280268
7 2 1 1 1 1 0 0 0.04219080068280302
8 2 1 1 0 1 0 0 0.04219080068280283
9 2 0 0 0.0625 1 0 0 0.02000211795570334
10 2 0 0 0.125 1 0 0 0.01880540437095636
11 2 0 0 0.1875 1 0 0 0.09391107169437818
12 2 0 0 0.25 1 0 0 0.02444001554506153
13 2 0 0 0.3125 1 0 0 0.03371532269451055
14 2 0 0 0.375 1 0 0 0.03119096560379729
15 2 0 0 0.4375 1 0 0 0.02310429740386981
16 2 0 0 0.5 1 0 0 0.04734671704500515
17 2 0 0 0.5625 1 0 0 0.01907702410126833
18 2 0 0 0.625 1 0 0 0.01518909674695531
19 2 0 0 0.6875 1 0 0 0.04225025568882461
20 2 0 0 0.75 1 0 0 0.02479180796917677
21 2 0 0 0.8125 1 0 0 0.06025561798679293
22 2 0 0 0.875 1 0 0 0.01909953695291035
23 2 0 0 0.9375 1 0 0 0.02023844275231597
24 2 0 0.0625 1 1 0 0 0.02011318569877227
25 2 0 0.125 1 1 0 0 0.01880540437095645
26 2 0 0.1875 1 1 0 0 0.0569536963324932
27 2 0 0.25 1 1 0 0 0.0205239712117873
28 2 0 0.3125 1 1 0 0 0.03971175538158159
29 2 0 0.375 1 1 0 0 0.02225613706673782
30 2 0 0.4375 1 1 0 0 0.02016872739158546
31 2 0 0.5 1 1 0 0 0.05207316186325968
32 2 0 0.5625 1 1 0 0 0.01997557821510907
33 2 0 0.625 1 1 0 0 0.02353108698134991
34 2 0 0.6875 1 1 0 0 0.04273341383143252
35 2 0 0.75 1 1 0 0 0.02374681468719703
36 2 0 0.8125 1 1 0 0 0.05810886029331842
37 2 0 0.875 1 1 0 0 0.0190995369529103
38 2 0 0.9375 1 1 0 0 0.02023844275231592
39 2 0 1 0.0625 1 0 0 0.01988148141074506
40 2 0 1 0.125 1 0 0 0.01864667330749266
41 2 0 1 0.1875 1 0 0 0.08830504156433172
42 2 0 1 0.25 1 0 0 0.0240840449512675
43 2 0 1 0.3125 1 0 0 0.02959938942264332
44 2 0 1 0.375 1 0 0 0.02807421631802404
45 2 0 1 0.4375 1 0 0 0.02311265348900752
46 2 0 1 0.5 1 0 0 0.06975557629205362
47 2 0 1 0.5625 1 0 0 0.01890407591681037
48 2 0 1 0.625 1 0 0 0.01412394521807381
49 2 0 1 0.6875 1 0 0 0.03831749951060729
50 2 0 1 0.75 1 0 0 0.02096880658487007
51 2 0 1 0.8125 1 0 0 0.0793734795283997
52 2 0 1 0.875 1 0 0 0.01880540437095635
53 2 0 1 0.9375 1 0 0 0.02000211795570334
54 2 0 0.0625 0 1 0 0 0.02011318569877225
55 2 0 0.125 0 1 0 0 0.01880540437095636
56 2 0 0.1875 0 1 0 0 0.09626320112538257
57 2 0 0.25 0 1 0 0 0.02476853629891971
58 2 0 0.3125 0 1 0 0 0.04039680901535908
59 2 0 0.375 0 1 0 0 0.03668332386765694
60 2 0 0.4375 0 1 0 0 0.02306119152415127
61 2 0 0.5 0 1 0 0 0.05052252763776603
62 2 0 0.5625 0 1 0 0 0.0201057423642388
63 2 0 0.625 0 1 0 0 0.01508534633681994
64 2 0 0.6875 0 1 0 0 0.04218469694968516
65 2 0 0.75 0 1 0 0 0.02479180796917677
66 2 0 0.8125 0 1 0 0 0.06025561798679293
67 2 0 0.875 0 1 0 0 0.01909953695291034
68 2 0 0.9375 0 1 0 0 0.02023844275231597
69 2 1 0 0.0625 1 0 0 0.02011318569877227
70 2 1 0 0.125 1 0 0 0.01880540437095645
71 2 1 0 0.1875 1 0 0 0.0569536963324932
72 2 1 0 0.25 1 0 0 0.0205239712117873
73 2 1 0 0.3125 1 0 0 0.03971175538158159
74 2 1 0 0.375 1 0 0 0.02225613706673782
75 2 1 0 0.4375 1 0 0 0.02016872739158546
76 2 1 0 0.5 1 0 0 0.04931409881603867
77 2 1 0 0.5625 1 0 0 0.02272295800163983
78 2 1 0 0.625 1 0 0 0.02382756983808089
79 2 1 0 0.6875 1 0 0 0.04334805669864443
80 2 1 0 0.75 1 0 0 0.02380298185648927
81 2 1 0 0.8125 1 0 0 0.06000283227372728
82 2 1 0 0.875 1 0 0 0.01909953695291027
83 2 1 0 0.9375 1 0 0 0.02023844275231583
84 2 1 0.0625 1 1 0 0 0.0198814814107451
85 2 1 0.125 1 1 0 0 0.01864667330749273
86 2 1 0.1875 1 1 0 0 0.07923942912948621
87 2 1 0.25 1 1 0 0 0.0202296982407274
88 2 1 0.3125 1 1 0 0 0.03377115754667723
89 2 1 0.375 1 1 0 0 0.01981728544636596
90 2 1 0.4375 1 1 0 0 0.02022141323482397
91 2 1 0.5 1 1 0 0 0.05287119328845538
92 2 1 0.5625 1 1 0 0 0.02024061788829171
93 2 1 0.625 1 1 0 0 0.02203403642488431
94 2 1 0.6875 1 1 0 0 0.03907593139482052
95 2 1 0.75 1 1 0 0 0.02041429893900884
96 2 1 0.8125 1 1 0 0 0.1160168155064528
97 2 1 0.875 1 1 0 0 0.01893472632009417
98 2 1 0.9375 1 1 0 0 0.02000211795570329
99 2 1 1 0.0625 1 0 0 0.01988148141074508
100 2 1 1 0.125 1 0 0 0.01864667330749273
101 2 1 1 0.1875 1 0 0 0.05614660841855968
102 2 1 1 0.25 1 0 0 0.0202296982407274
103 2 1 1 0.3125 1 0 0 0.03377115754667723
104 2 1 1 0.375 1 0 0 0.01981728544636596
105 2 1 1 0.4375 1 0 0 0.02008864244182573
106 2 1 1 0.5 1 0 0 0.04903976425483793
107 2 1 1 0.5625 1 0 0 0.01959614161799453
108 2 1 1 0.625 1 0 0 0.02227318915233529
109 2 1 1 0.6875 1 0 0 0.03958673463371767
110 2 1 1 0.75 1 0 0 0.02045754924638987
111 2 1 1 0.8125 1 0 0 0.09084872567301153
112 2 1 1 0.875 1 0 0 0.01893472632009417
113 2 1 1 0.9375 1 0 0 0.0201131856987722
114 2 1 0.0625 0 1 0 0 0.01988148141074506
115 2 1 0.125 0 1 0 0 0.01864667330749266
116 2 1 0.1875 0 1 0 0 0.08091466272010515
117 2 1 0.25 0 1 0 0 0.02428507705446255
118 2 1 0.3125 0 1 0 0 0.03328597194844583
119 2 1 0.375 0 1 0 0 0.03083464265015266
120 2 1 0.4375 0 1 0 0 0.0231126534890075
121 2 1 0.5 0 1 0 0 0.07637621345380562
122 2 1 0.5625 0 1 0 0 0.0202608117286232
123 2 1 0.625 0 1 0 0 0.01441642640384619
124 2 1 0.6875 0 1 0 0 0.0383138820288342
125 2 1 0.75 0 1 0 0 0.02097160012006746
126 2 1 0.8125 0 1 0 0 0.05917932790969514
127 2 1 0.875 0 1 0 0 0.01893472632009425
128 2 1 0.9375 0 1 0 0 0.02011318569877232
129 2 0.0625 0 0 1 0 0 0.02000211795570334
130 2 0.125 0 0 1 0 0 0.01880540437095636
131 2 0.1875 0 0 1 0 0 0.08816528739807357
132 2 0.25 0 0 1 0 0 0.02444001554506153
133 2 0.3125 0 0 1 0 0 0.0551641883880323
134 2 0.375 0 0 1 0 0 0.03119096560379729
135 2 0.4375 0 0 1 0 0 0.02308517050558618
136 2 0.5 0 0 1 0 0 0.04734671704500515
137 2 0.5625 0 0 1 0 0 0.01907702410126833
138 2 0.625 0 0 1 0 0 0.01518909674695531
139 2 0.6875 0 0 1 0 0 0.04225025568882461
140 2 0.75 0 0 1 0 0 0.02479180796917677
141 2 0.8125 0 0 1 0 0 0.06025561798679294
142 2 0.875 0 0 1 0 0 0.01909953695291035
143 2 0.9375 0 0 1 0 0 0.02023844275231598
144 2 0.0625 0 1 1 0 0 0.01988148141074506
145 2 0.125 0 1 1 0 0 0.01864667330749266
146 2 0.1875 0 1 1 0 0 0.07763734556682605
147 2 0.25 0 1 1 0 0 0.0240840449512675
148 2 0.3125 0 1 1 0 0 0.02959938942264332
149 2 0.375 0 1 1 0 0 0.02807421631802404
150 2 0.4375 0 1 1 0 0 0.0231367214594651
151 2 0.5 0 1 1 0 0 0.04854944631066881
152 2 0.5625 0 1 1 0 0 0.01923385779158689
153 2 0.625 0 1 1 0 0 0.01414846085991578
154 2 0.6875 0 1 1 0 0 0.03837413245424501
155 2 0.75 0 1 1 0 0 0.02097160012006746
156 2 0.8125 0 1 1 0 0 0.07781388867760627
157 2 0.875 0 1 1 0 0 0.01893472632009425
158 2 0.9375 0 1 1 0 0 0.02011318569877232
159 2 0.0625 1 0 1 0 0 0.02011318569877227
160 2 0.125 1 0 1 0 0 0.0189347263200943
161 2 0.1875 1 0 1 0 0 0.0569536963324932
162 2 0.25 1 0 1 0 0 0.0205239712117873
163 2 0.3125 1 0 1 0 0 0.05900709564790412
164 2 0.375 1 0 1 0 0 0.02225613706673782
165 2 0.4375 1 0 1 0 0 0.02016872739158546
166 2 0.5 1 0 1 0 0 0.04931409881603867
167 2 0.5625 1 0 1 0 0 0.01997557821510907
168 2 0.625 1 0 1 0 0 0.02382756983808089
169 2 0.6875 1 0 1 0 0 0.04334805669864444
170 2 0.75 1 0 1 0 0 0.02380298185648927
171 2 0.8125 1 0 1 0 0 0.0581232692123817
172 2 0.875 1 0 1 0 0 0.01909953695291027
173 2 0.9375 1 0 1 0 0 0.02023844275231592
174 2 0.0625 1 1 1 0 0 0.01988148141074508
175 2 0.125 1 1 1 0 0 0.01864667330749273
176 2 0.1875 1 1 1 0 0 0.08104203658654673
177 2 0.25 1 1 1 0 0 0.0202296982407274
178 2 0.3125 1 1 1 0 0 0.05554807095902121
179 2 0.375 1 1 1 0 0 0.01981728544636596
180 2 0.4375 1 1 1 0 0 0.02022141323482397
181 2 0.5 1 1 1 0 0 0.05029310203732961
182 2 0.5625 1 1 1 0 0 0.02024061788829171
183 2 0.625 1 1 1 0 0 0.0223050999734007
184 2 0.6875 1 1 1 0 0 0.0396383040952294
185 2 0.75 1 1 1 0 0 0.02046293771405799
186 2 0.8125 1 1 1 0 0 0.05695380992171604
187 2 0.875 1 1 1 0 0 0.01880540437095631
188 2 0.9375 1 1 1 0 0 0.02000211795570329
189 2 0 0.4945390279783997 0.4969014956777302 1 0 0 0.1095831747705753
190 2 0 0.2997747652313 0.2998831720516537 1 0 0 0.1245578021018488
191 2 0 0.2926136363636364 0.7073863636363636 1 0 0 0.06926003226283337
192 2 0 0.7073863636363636 0.7073863636363636 1 0 0 0.04376194553734775
193 2 0 0.7065407438851818 0.2897957416324287 1 0 0 0.07880627964620616
194 2 0 0.5032211048390434 0.7854409218910895 1 0 0 0.131839155616063
195 2 0 0.2106926892350628 0.5005628443846504 1 0 0 0.1482831105651778
196 2 0 0.5048099864939859 0.2164559874570015 1 0 0 0.1384077409882218
197 2 0 0.777858560259683 0.4913406585110916 1 0 0 0.1820006612718965
198 2 0 0.1734489355246785 0.1775819706368885 1 0 0 0.07219360257064529
199 2 0 0.1734489355246785 0.8224180293631114 1 0 0 0.06806651833631416
200 2 0 0.8224180293631115 0.8265510644753216 1 0 0 0.06044945273930842
201 2 0 0.8224180293631115 0.1734489355246785 1 0 0 0.1198135729216065
202 2 0 0.4190068619100572 0.640428037933322 1 0 0 0.2331520252743235
203 2 0 0.6410353818106024 0.5739453054371133 1 0 0 0.1525762282087637
204 2 0 0.3620052039824014 0.4249515249363466 1 0 0 0.08286645394752198
205 2 0 0.5735380001984083 0.3624348419707902 1 0 0 0.07549823753041367
206 2 0 0.3688119324006869 0.8444052403633548 1 0 0 0.08231818842727395
207 2 0 0.153778287669116 0.6396565832943308 1 0 0 0.0446064082930071
208 2 0 0.8451674701069498 0.6356485723460921 1 0 0 0.1226740742702791
209 2 0 0.3584533892376169 0.1500748122431208 1 0 0 0.2356487261918632
210 2 0 0.1503030543224476 0.3595595177881755 1 0 0 0.2000643241708184
211 2 0 0.6396565832943309 0.1537782876691161 1 0 0 0.07730783193422468
212 2 0 0.6407181846260041 0.8491801831390093 1 0 0 0.1891332468034481
213 2 0 0.8439830556820602 0.3593919372318259 1 0 0 0.1207544959843596
214 2 0 0.3241044523775091 0.5912103028703873 1 0 0 0.09027182834351848
215 2 0 0.5966359315211482 0.6736758098710142 1 0 0 0.07781904248066032
216 2 0 0.4166944202316558 0.3198617400392816 1 0 0 0.1903414931179515
217 2 0 0.6654107275345585 0.4431218083504908 1 0 0 0.1427090348112828
218 2 0 0.5394631398126806 0.1112222988133581 1 0 0 0.1503879923506412
219 2 0 0.1090031533791522 0.5374631171637719 1 0 0 0.07417377157882589
220 2 0 0.4681790772303986 0.8863497921362373 1 0 0 0.1373346235406643
221 2 0 0.8887777011866418 0.5394631398126803 1 0 0 0.1427182192602519
222 2 0 0.1052046495590834 0.2505163444953872 1 0 0 0.1021950445005918
223 2 0 0.2575833242959327 0.8987952479267294 1 0 0 0.1830987832943933
224 2 0 0.8949636599472536 0.2447421930892002 1 0 0 0.1786364865517942
225 2 0 0.8987952479267297 0.7424166757040672 1 0 0 0.1985591253515129
226 2 0 0.2494264310166994 0.1045152311136553 1 0 0 0.1373013819805036
227 2 0 0.1059445017487549 0.7391260776204931 1 0 0 0.1101982623808797
228 2 0 0.739126077620493 0.1059445017487549 1 0 0 0.1000405261322358
229 2 0 0.7494836555046127 0.8947953504409167 1 0 0 0.1623055764003622
230 2 0 0.2528253197381999 0.3962588656407203 1 0 0 0.1062277704326848
231 2 0 0.602321891963584 0.2641680683931651 1 0 0 0.1693928241541747
232 2 0 0.3948954229194907 0.7412128705741807 1 0 0 0.06757173271675876
233 2 0 0.7433835133267497 0.602838199004134 1 0 0 0.1233243799760897
234 2 0 0.09351619062910642 0.09202056624835363 1 0 0 0.09056449569711865
235 2 0 0.09351619062910646 0.9079794337516462 1 0 0 0.08806156595587677
236 2 0 0.9079794337516465 0.9064838093708936 1 0 0 0.1166931959404248
237 2 0 0.9079794337516465 0.09351619062910643 1 0 0 0.0999134088227315
238 2 0 0.4753224300535509 0.4019404072532727 1 0 0 0.1692977931711842
239 2 0 0.5248215640530248 0.5976351393296715 1 0 0 0.1709083083522001
240 2 0 0.4019404072532727 0.5246775699464489 1 0 0 0.1069855416503652
241 2 0 0.7500015186448586 0.3889549647849626 1 0 0 0.09450449541649682
242 2 0 0.5617667471021901 0.9033867162553945 1 0 0 0.09421069978976739
243 2 0 0.4382332528978097 0.0966132837446055 1 0 0 0.05934047830316445
244 2 0 0.09661328374460541 0.4382332528978097 1 0 0 0.1111299610113868
245 2 0 0.9033867162553945 0.4382332528978097 1 0 0 0.1365858974211102
246 2 0 0.2717599000169943 0.2037612178621244 1 0 0 0.112315767391708
247 2 0 0.7937840909042204 0.2680010446622636 1 0 0 0.09133744251381705
248 2 0 0.7922226033205959 0.7314344583667323 1 0 0 0.1201278322287988
249 2 0 0.2685655416332678 0.7922226033205959 1 0 0 0.06648434977728572
250 2 0 0.201023489176957 0.7227831636860514 1 0 0 0.1624765995403042
251 2 0 0.2015819907485058 0.2781242832705154 1 0 0 0.1170492629561166
252 2 0 0.7206377053084324 0.2002106627875898 1 0 0 0.1825662519493461
253 2 0 0.7234613602839888 0.7994212492921664 1 0 0 0.06501848033113876
254 2 0 0.5875193409969851 0.4888741340116756 1 0 0 0.03949089556077024
255 2 0 0.2377786464003898 0.6221278703333885 1 0 0 0.07217053435714418
256 2 0 0.367610361033652 0.2423849694641197 1 0 0 0.08239974634824282
257 2 0 0.6301791280184372 0.7569662270944044 1 0 0 0.09412898984754725
258 2 0 0.6449661470404692 0.3675922535384678 1 0 0 0.1586861624441536
259 2 0 0.3058673874617835 0.4973569001734264 1 0 0 0.04476865130816825
260 2 0 0.4953781761466761 0.6976052462958733 1 0 0 0.1172383641733953
261 2 0 0.5014225004300503 0.3077450666913053 1 0 0 0.143209413707118
262 2 0 0.8166753806690078 0.9181785169528157 1 0 0 0.1118837853093735
263 2 0 0.8196184046184001 0.0796190673734101 1 0 0 0.1432051294009004
264 2 0 0.08182148304718422 0.1833246193309922 1 0 0 0.1198254014567014
265 2 0 0.07961906737340993 0.8196184046184 1 0 0 0.1432936209003277
266 2 0 0.1859625956859503 0.9210958800879738 1 0 0 0.1956780535662917
267 2 0 0.9210958800879737 0.8140374043140498 1 0 0 0.1497224652087127
268 2 0 0.1828611919615718 0.08097870694717144 1 0 0 0.09358170102699244
269 2 0 0.9189986848974118 0.1826579677005217 1 0 0 0.1064922402359583
270 2 0 0.9151646565401089 0.6108675406776911 1 0 0 0.1008421720630684
271 2 0 0.0803720317026576 0.6007082193987259 1 0 0 0.05496661756915313
272 2 0 0.6033224730231654 0.07978692092104608 1 0 0 0.04349575907039496
273 2 0 0.3843905572681218 0.9167636411510278 1 0 0 0.1388439266593981
274 2 0 0.07040493506578993 0.3446904891814105 1 0 0 0.1535788907586232
275 2 0 0.6549616521270638 0.9312240279356707 1 0 0 0.195585468973914
276 2 0 0.9464266838525823 0.343756551641584 1 0 0 0.1508653950073375
277 2 0 0.3449603610669203 0.06871586743822548 1 0 0 0.2097828225494999
278 2 0 0.6462830277857999 0.6357533415653619 1 0 0 0.1164025105125129
279 2 0 0.3589205188597048 0.6477596163838265 1 0 0 0.08633570357643092
280 2 0 0.3455303744299921 0.3534074914595641 1 0 0 0.1637916778493677
281 2 0 0.7122109764072579 0.5000951420838633 1 0 0 0.1339267654171389
282 2 0 0.5641585544074554 0.8392027840064032 1 0 0 0.1209117115458691
283 2 0 0.1574519070614353 0.4367474937456608 1 0 0 0.08190400172195798
284 2 0 0.4367417787421255 0.1609412040848743 1 0 0 0.1176005103638722
285 2 0 0.8409025528771177 0.4341692338989333 1 0 0 0.1263187371223271
286 2 0 0.199401498568048 0.5707240420547876 1 0 0 0.167852928147825
287 2 0 0.5661284345205947 0.1759836660602697 1 0 0 0.1171702353498232
288 2 0 0.4363335259283396 0.8215390350492937 1 0 0 0.2007325727194817
289 2 0 0.8153202135071718 0.5653089999092372 1 0 0 0.1561656832856584
290 2 0 0.5520878538998762 0.4263063366034193 1 0 0 0.2152894745619394
291 2 0 0.7819516110896658 0.6647133827788858 1 0 0 0.1181882769252802
292 2 0 0.3369995874451485 0.7831180098475876 1 0 0 0.2418814023566317
293 2 0 0.4570775839660358 0.5717910921355099 1 0 0 0.1625606141507331
294 2 0 0.4323998673971548 0.4611226071149064 1 0 0 0.1095126725663055
295 2 0 0.9308679466441963 0.678921395968398 1 0 0 0.1489816076354581
296 2 0 0.3208728780296677 0.9309373181131553 1 0 0 0.0968702338610001
297 2 0 0.07242379558580428 0.6837808639065484 1 0 0 0.08193718382461884
298 2 0 0.6837808639065482 0.07242379558580431 1 0 0 0.1075485638682306
299 2 0 0.432499057529621 0.2506055816259565 1 0 0 0.1414452136374728
300 2 0 0.5650151946465847 0.7600369500498421 1 0 0 0.0776162435510165
301 2 0 0.7847252088282757 0.3353231606876527 1 0 0 0.1621603805472756
302 2 0 0.7325670543276418 0.4484618875577705 1 0 0 0.1094338402731545
303 2 0 0.3846900091336676 0.5849886850021656 1 0 0 0.1857112940554929
304 2 0 0.5866576871617784 0.6137274840246573 1 0 0 0.08344989620123112
305 2 0 0.4135191528354034 0.3855995127544359 1 0 0 0.2316905280193228
306 2 0 0.2475507493917807 0.5573492086479244 1 0 0 0.08534520031240063
307 2 0 0.6708061429379664 0.2406179673058315 1 0 0 0.08018872146241642
308 2 0 0.2174850362354036 0.3430690432578553 1 0 0 0.1030567492810791
309 2 0 0.6072896026167771 0.4120933044768778 1 0 0 0.1032649998127184
310 2 0 0.5759602382061634 0.5450748724935554 1 0 0 0.1738553114920958
311 2 0 0.5073071069887823 0.9290298123990786 1 0 0 0.07583436058679213
312 2 0 0.9316147822671864 0.493403815366575 1 0 0 0.06131223983849171
313 2 0 0.4934038153665751 0.06838521773281342 1 0 0 0.1305698235175647
314 2 0 0.0681210337525508 0.4931657174321812 1 0 0 0.1607996845045967
315 2 0 0.334921243457133 0.1986949643189627 1 0 0 0.06698921511075824
316 2 0 0.4991925841837644 0.1572352529550644 1 0 0 0.1284906706485041
317 2 0 0.1550389389572505 0.4969946405244954 1 0 0 0.1098008427467662
318 2 0 0.5049178713590979 0.8415498292202405 1 0 0 0.07942046747921684
319 2 0 0.8415498292202405 0.4950821286409018 1 0 0 0.1009318049074887
320 2 0 0.2978693221991938 0.840750644791376 1 0 0 0.1219611736023881
321 2 0 0.8406832832889886 0.7031595902959418 1 0 0 0.1434091153268773
322 2 0 0.8421082019827254 0.2906478346871931 1 0 0 0.103163579792475
323 2 0 0.7666294629879042 0.8384651642071315 1 0 0 0.109120466109489
324 2 0 0.1613503936856384 0.2343055906115058 1 0 0 0.1203740952406362
325 2 0 0.1610029665003613 0.7629990796178833 1 0 0 0.07475092470867883
326 2 0 0.7626415032216134 0.1608674954354669 1 0 0 0.1265671883775216
327 2 0 0.7183199755814658 0.9457057675419157 1 0 0 0.09582115880585815
328 2 0 0.05456572629166116 0.2816220479699466 1 0 0 0.08811461277664236
329 2 0 0.2814960669439877 0.05419530849317115 1 0 0 0.07855512152375314
330 2 0 0.9470741179777128 0.2809949191570653 1 0 0 0.09023240355184611
331 2 0 0.2649456724011224 0.4559941030560861 1 0 0 0.1234185779034275
332 2 0 0.5398226252216765 0.2629940690301916 1 0 0 0.05062000725030034
333 2 0 0.4390964827589612 0.6963248187366887 1 0 0 0.1462834049708013
334 2 0 0.6056311343741142 0.3192631430713631 1 0 0 0.09171819460558787
335 2 0 0.9524336896373907 0.7672784455463681 1 0 0 0.1003332782152905
336 2 0 0.770366638375884 0.05786764471254801 1 0 0 0.1019595770204269
337 2 0 0.2327215544536319 0.9524336896373906 1 0 0 0.05542706063595114
338 2 0 0.05786764471254795 0.7703666383758841 1 0 0 0.1174444595879145
339 2 0 0.9463364620584596 0.398431893002343 1 0 0 0.0879753874675905
340 2 0 0.6015681069976571 0.9463364620584593 1 0 0 0.1458736158718257
341 2 0 0.3984318930023426 0.05366353794154052 1 0 0 0.1033634673011369
342 2 0 0.05366353794154051 0.3984318930023426 1 0 0 0.09181854555602907
343 2 0 0.2325761216544243 0.8363395032162251 1 0 0 0.07694999027925534
344 2 0 0.8363282762991606 0.7675953637614314 1 0 0 0.1343261667414441
345 2 0 0.2298913495552136 0.158841119149787 1 0 0 0.1139088787064026
346 2 0 0.8384469804871866 0.2285454146630042 1 0 0 0.06626216189548827
347 2 0 0.9422007044067513 0.9422007044067513 1 0 0 0.1044794640418719
348 2 0 0.9422007044067515 0.05779929559324864 1 0 0 0.09776869779384818
349 2 0 0.05779929559324843 0.05779929559324843 1 0 0 0.1005591742468784
350 2 0 0.05779929559324855 0.9422007044067515 1 0 0 0.09043797285007887
351 2 0 0.2918227577304546 0.1529641941044155 1 0 0 0.04785921516886809
352 2 0 0.5551512418944414 0.0571269662351462 1 0 0 0.1127934712149491
353 2 0 0.4452339024665918 0.9383161601928753 1 0 0 0.1289063468432283
354 2 0 0.9428730337648538 0.5551512418944408 1 0 0 0.1142275758433818
355 2 0 0.05712696623514609 0.5551512418944408 1 0 0 0.1207548229833952
356 2 0 0.1508709971630314 0.3002672142406971 1 0 0 0.07434539585595409
357 2 0 0.1431595197657975 0.6945788249973154 1 0 0 0.1456604736144207
358 2 0 0.7073518747443079 0.8476407643957115 1 0 0 0.06955143637186965
359 2 0 0.6950906915225011 0.141507682951207 1 0 0 0.1347032246979897
360 2 0 0.1432344435356365 0.5939844071871448 1 0 0 0.05897404558918334
361 2 0 0.3454086557914579 0.7108991794272053 1 0 0 0.1496720248020904
362 2 0 0.7106972045512312 0.6551720260930436 1 0 0 0.09412025942034587
363 2 0 0.6440905580586267 0.5095014793660513 1 0 0 0.1660454870392165
364 2 0 0.6892579319121709 0.6052790818146981 1 0 0 0.05081437686595586
365 2 0 0.3643635460543354 0.2964842490139384 1 0 0 0.1169143988536561
366 2 0 0.653096140884457 0.7018906941862662 1 0 0 0.1050241613678456
367 2 0 0.2968751256080638 0.6509020688346445 1 0 0 0.1479210961837737
368 2 0 0.2792737670131214 0.3496571446587029 1 0 0 0.09795774645366516
369 2 0 0.7498505429613839 0.5444253349838561 1 0 0 0.06883933527518295
370 2 0 0.303037931493684 0.4049399533690715 1 0 0 0.1974209212907301
371 2 0 0.9522072925644758 0.2291790159893575 1 0 0 0.1078825496759655
372 2 0 0.04831837177958576 0.2305926023592652 1 0 0 0.1394789801360933
373 2 0 0.7693958023510175 0.9517359269871296 1 0 0 0.1333110198394571
374 2 0 0.2302567379844518 0.04793784931079956 1 0 0 0.08697505573256603
375 2 0 0.1331809424370586 0.9449562450057973 1 0 0 0.05784083000333991
376 2 0 0.05504375499420269 0.8668190575629414 1 0 0 0.1150868673508871
377 2 0 0.8668190575629421 0.9449562450057973 1 0 0 0.1411033211637805
378 2 0 0.05504375499420256 0.1331809424370584 1 0 0 0.1516067474956463
379 2 0 0.1331809424370584 0.05504375499420255 1 0 0 0.08849057224797933
380 2 0 0.9449562450057971 0.1331809424370584 1 0 0 0.07901366532980221
381 2 0 0.8668190575629419 0.05504375499420269 1 0 0 0.06505201441722701
382 2 0 0.9449562450057974 0.866819057562942 1 0 0 0.1236961981357373
383 2 0 0.4819061003971721 0.6415218709888846 1 0 0 0.08721350872249736
384 2 0 0.5190757035855721 0.3602048249355808 1 0 0 0.1410591488984861
385 2 0 0.3472022516295445 0.5375087184310071 1 0 0 0.1853540470384689
386 2 0 0.4515944177325704 0.7533755874735302 1 0 0 0.08069712981955859
387 2 0 0.7114155156083219 0.3410260928582982 1 0 0 0.1390001886818002
388 2 0 0.5922560314686481 0.1294313452979798 1 0 0 0.07936721574631282
389 2 0 0.4160726350541781 0.8736721513530747 1 0 0 0.1001176703630071
390 2 0 0.866107510335218 0.5878220631864252 1 0 0 0.1065014213704665
391 2 0 0.6204785998162576 0.2084820750246659 1 0 0 0.1086028174044894
392 2 0 0.7424961204068971 0.2504970003150099 1 0 0 0.07737984958651378
393 2 0 0.2558061539912987 0.2575880418541244 1 0 0 0.1036971792734038
394 2 0 0.2515811006019606 0.7433241464391911 1 0 0 0.03942621079434859
395 2 0 0.7424107378707087 0.7488270456025969 1 0 0 0.1069238028765886
396 2 0 0.7964557020076343 0.6171272885095873 1 0 0 0.1120204612153104
397 2 0 0.390684225723657 0.7924576793334333 1 0 0 0.09270109373740208
398 2 0 0.6870383724961484 0.7554264068010355 1 0 0 0.1259377407292617
399 2 0 0.1999527938871904 0.6659359335080289 1 0 0 0.1156340129292401
400 2 0 0.1238401583802352 0.1460479553689851 1 0 0 0.1110248995082758
401 2 0 0.8539520446310156 0.1238401583802353 1 0 0 0.1026346889423529
402 2 0 0.1238401583802351 0.8539520446310148 1 0 0 0.1078413408236136
403 2 0 0.8539520446310153 0.8761598416197648 1 0 0 0.1067011010468619
404 2 0 0.609225666765284 0.8934031726578251 1 0 0 0.07110721535301838
405 2 0 0.1060849526710843 0.3928066704069966 1 0 0 0.1322179736524667
406 2 0 0.3907737128476939 0.1065293660000632 1 0 0 0.08337684540146101
407 2 0 0.8929210247191143 0.3859920231167889 1 0 0 0.1252249085354182
408 2 0 0.800334121032975 0.3890417231454523 1 0 0 0.05036518670487675
409 2 0 0.3645943536538439 0.4841446118699866 1 0 0 0.07190242481635403
410 2 0 0.4627355992159166 0.347482859378886 1 0 0 0.05085055975257066
411 2 0 0.5380224358378667 0.6551180099400412 1 0 0 0.09845704735748223
412 2 0 0.7008721926311701 0.3978314014179979 1 0 0 0.1525522602065104
413 2 0 0.6569469293016061 0.3037438777999257 1 0 0 0.1018080041989308
414 2 0 0.7800707382819102 0.2135950922313355 1 0 0 0.1071487470325815
415 2 0 0.2128780880238605 0.7836244191082842 1 0 0 0.1926366623428883
416 2 0 0.2156397872537216 0.2183670372308242 1 0 0 0.09113463556922521
417 2 0 0.7805784116875782 0.7853823909508966 1 0 0 0.04006774271433627
418 2 0 0.1996802945884762 0.3943967055519143 1 0 0 0.08047263018453131
419 2 0 0.6109461124728397 0.8035052098765816 1 0 0 0.0638172246843465
420 2 0 0.3879574146674187 0.1979691036161254 1 0 0 0.1625062495906256
421 2 0 0.4970492433608055 0.4499729534710731 1 0 0 0.09793757299563044
422 2 0 0.5050977275018701 0.5470082637995213 1 0 0 0.0930028942351529
423 2 0 0.4530657567041848 0.5206657426845983 1 0 0 0.09573354580578984
424 2 0 0.5557332229261898 0.3123620862409042 1 0 0 0.07928472873413814
425 2 0 0.6689183916056829 0.8043756680524119 1 0 0 0.1466029467406229
426 2 0 0.2778369178411617 0.9582924199424173 1 0 0 0.09831965716757576
427 2 0 0.9588406877625923 0.7212250618126057 1 0 0 0.07261171251497194
428 2 0 0.04724718840942143 0.7261547159805852 1 0 0 0.08189850521873596
429 2 0 0.726154715980585 0.04724718840942145 1 0 0 0.07047729252084003
430 2 0 0.2466374653396996 0.6854099244062779 1 0 0 0.0827792076072805
431 2 0 0.6707782620323977 0.1897966309649219 1 0 0 0.1080855079630168
432 2 0 0.3196370104277305 0.2514979767377895 1 0 0 0.0955798681440883
433 2 0 0.3200901097985671 0.4534774186809834 1 0 0 0.1193875749659867
434 2 0 0.3911907654524681 0.685611887841814 1 0 0 0.05028824374994598
435 2 0 0.1109790249284778 0.4846627536832024 1 0 0 0.0897522205054551
436 2 0 0.5168805160743953 0.886647696159597 1 0 0 0.1069680019719709
437 2 0 0.889020975071522 0.4846627536832021 1 0 0 0.09924203769050295
438 2 0 0.4846627536832024 0.1109790249284776 1 0 0 0.1185971984605434
439 2 0 0.8945794573602415 0.3175875764872763 1 0 0 0.1234760828318645
440 2 0 0.1291331240393639 0.1983552960887518 1 0 0 0.0758931277634058
441 2 0 0.7946871163050863 0.1169313005291823 1 0 0 0.06369437836145217
442 2 0 0.1169538790399979 0.794746712371131 1 0 0 0.1304721923092907
443 2 0 0.8018317146311302 0.8708299875391901 1 0 0 0.1141425540396342
444 2 0 0.7771418964715814 0.4301988873434751 1 0 0 0.09890375240601149
445 2 0 0.04607698111859514 0.4489047064447781 1 0 0 0.08392122266008824
446 2 0 0.4499752100013805 0.04555407398162544 1 0 0 0.06733953618379777
447 2 0 0.5511297559765747 0.9537153546067423 1 0 0 0.129218631841797
448 2 0 0.9544459260183744 0.4499752100013804 1 0 0 0.07902752520409388
449 2 0 0.5394216716698472 0.4861997227306676 1 0 0 0.101170937864435
450 2 0 0.3281922686982822 0.8818668672901899 1 0 0 0.09209667924318257
451 2 0 0.881866867290191 0.6718077313017176 1 0 0 0.06433327177867287
452 2 0 0.1062439380489334 0.6421250870721416 1 0 0 0.1393305445020761
453 2 0 0.6423580444773297 0.1035705970766237 1 0 0 0.1149653288446763
454 2 0 0.2507843426439259 0.3056643370185703 1 0 0 0.04320094074638416
455 2 0 0.1595640217092283 0.5413874620634382 1 0 0 0.08637886206919589
456 2 0 0.9579573605317172 0.6398450655257519 1 0 0 0.04373540893575423
457 2 0 0.04566359136794767 0.6397850826517407 1 0 0 0.09883806033361046
458 2 0 0.63990860805043 0.04552222441347045 1 0 0 0.118221788966057
459 2 0 0.3597943201844438 0.9580789608290845 1 0 0 0.09730302845913497
460 2 0 0.1894909808896158 0.6188085318268397 1 0 0 0.1017083430652243
461 2 0 0.6216067093683489 0.4567125562118239 1 0 0 0.06280550452717883
462 2 0 0.4873691928247351 0.2675222338434292 1 0 0 0.0918446967586978
463 2 0 0.5486828603985837 0.7074659218214024 1 0 0 0.08265814827556561
464 2 0 0.2773043107672583 0.5959781008146205 1 0 0 0.07756766672058234
465 2 0 0.3052318011991358 0.1060930826785177 1 0 0 0.1201618382945586
466 2 0 0.1896655294781489 0.8712010793678184 1 0 0 0.1283405181367427
467 2 0 0.1881102250500631 0.1288415464906853 1 0 0 0.1398241078503495
468 2 0 0.8712010793678181 0.8103344705218507 1 0 0 0.08957738915257865
469 2 0 0.8708406944659736 0.1860870820269275 1 0 0 0.05784925370321713
470 2 0 0.1062698724804027 0.3073311227351234 1 0 0 0.1229346146116515
471 2 0 0.6941670685166909 0.8937092186906448 1 0 0 0.06338487142586517
472 2 0 0.7494078482109587 0.2964685224012468 1 0 0 0.05798652753614873
473 2 0 0.9646373922308753 0.596120562591558 1 0 0 0.02909905002057961
474 2 0 0.03663251786115027 0.5966289087889814 1 0 0 0.03882102039785543
475 2 0 0.5952224041498293 0.03485642038753062 1 0 0 0.0545664882298382
476 2 0 0.4047775958501719 0.9651435796124707 1 0 0 0.0546838243864239
477 2 0 0.5991970162371769 0.7209354304833342 1 0 0 0.1560840033840001
478 2 0 0.2171191766048593 0.4367920024758064 1 0 0 0.05737826986432636
479 2 0 0.5667123076032196 0.2256167731930587 1 0 0 0.1300858231493945
480 2 0 0.2945249021719499 0.7524948821334023 1 0 0 0.0822946608723215
481 2 0 0.7510472618606803 0.7044420796761015 1 0 0 0.1002363443763587
482 2 0 0.03704642689237404 0.9056447453421439 1 0 0 0.05488585926603052
483 2 0 0.03704642689237386 0.09435525465785584 1 0 0 0.03356973471169619
484 2 0 0.9056447453421442 0.03704642689237399 1 0 0 0.07015028715240387
485 2 0 0.09454018595567582 0.9643201495092597 1 0 0 0.06146085492431953
486 2 0 0.0945401859556759 0.03567985049074009 1 0 0 0.04369765301380251
487 2 0 0.9643201495092598 0.09454018595567579 1 0 0 0.07673887063561387
488 2 0 0.9056447453421445 0.9629535731076264 1 0 0 0.03834043485695922
489 2 0 0.9643201495092601 0.9054598140443244 1 0 0 0.06919133850713886
490 2 0 0.6989959739862287 0.5567776465984436 1 0 0 0.1448595106861173
491 2 0 0.1452330833220999 0.8998369365688502 1 0 0 0.08083856565332952
492 2 0 0.144301741691607 0.1005865060098796 1 0 0 0.07400837289234477
493 2 0 0.8993454205503689 0.1438564682347699 1 0 0 0.09197776047838975
494 2 0 0.8998369365688502 0.8547669166779003 1 0 0 0.05198401399381028
495 2 0 0.2941188786978013 0.5484125349212229 1 0 0 0.08553281685299799
496 2 0 0.2626841205589321 0.5110719785899721 1 0 0 0.08276090737557361