LAMMPS data file for tetmsm

52 atoms
234 bonds
135 impropers

2 atom types
1 bond types
1 improper types

-0.5 1.5 xlo xhi
-0.5 1.5 ylo yhi
-0.5 1.5 zlo zhi

Masses

1 1.0
2 1.0

Atoms  # hybrid full sphere

1 2 0 0 1 1 0 0 5.208333333333333
2 2 0 0 0 1 0 0 5.208333333333333
3 2 0 1 1 1 0 0 5.208333333333333
4 2 0 1 0 1 0 0 5.208333333333333
5 2 1 0 1 1 0 0 5.208333333333333
6 2 1 0 0 1 0 0 5.208333333333333
7 2 1 1 1 1 0 0 5.208333333333333
8 2 1 1 0 1 0 0 5.208333333333333
9 2 0 0 0.5 1 0 0 7.812499999999999
10 2 0 0.5 1 1 0 0 7.812499999999999
11 2 0 1 0.5 1 0 0 14.32291666666667
12 2 0 0.5 0 1 0 0 14.32291666666667
13 2 1 0 0.5 1 0 0 14.32291666666667
14 2 1 0.5 1 1 0 0 14.32291666666667
15 2 1 1 0.5 1 0 0 7.812499999999999
16 2 1 0.5 0 1 0 0 10.41666666666667
17 2 0.5 0 0 1 0 0 7.812499999999999
18 2 0.5 0 1 1 0 0 14.32291666666667
19 2 0.5 1 0 1 0 0 14.32291666666667
20 2 0.5 1 1 1 0 0 7.812499999999999
21 2 0 0.5 0.5 1 0 0 39.71354166666667
22 2 0 0.75 0.75 1 0 0 21.80989583333333
23 2 0 0.25 0.75 1 0 0 20.5078125
24 2 0 0.75 0.25 1 0 0 12.6953125
25 2 0 0.25 0.25 1 0 0 13.34635416666667
26 2 1 0.5 0.5 1 0 0 38.0859375
27 2 1 0.75 0.75 1 0 0 21.80989583333333
28 2 1 0.25 0.75 1 0 0 12.6953125
29 2 1 0.75 0.25 1 0 0 17.90364583333333
30 2 1 0.25 0.25 1 0 0 19.20572916666666
31 2 0.5 0 0.5 1 0 0 39.71354166666667
32 2 0.75 0 0.75 1 0 0 12.6953125
33 2 0.25 0 0.75 1 0 0 13.34635416666667
34 2 0.75 0 0.25 1 0 0 13.34635416666667
35 2 0.25 0 0.25 1 0 0 28.97135416666666
36 2 0.5 1 0.5 1 0 0 39.71354166666666
37 2 0.75 1 0.75 1 0 0 12.04427083333334
38 2 0.25 1 0.75 1 0 0 21.80989583333333
39 2 0.75 1 0.25 1 0 0 21.80989583333333
40 2 0.25 1 0.25 1 0 0 12.6953125
41 2 0.5 0.5 0 1 0 0 43.9453125
42 2 0.75 0.25 0 1 0 0 20.5078125
43 2 0.75 0.75 0 1 0 0 13.34635416666667
44 2 0.25 0.75 0 1 0 0 12.6953125
45 2 0.25 0.25 0 1 0 0 13.34635416666667
46 2 0.5 0.5 1 1 0 0 39.71354166666666
47 2 0.75 0.25 1 1 0 0 12.6953125
48 2 0.75 0.75 1 1 0 0 21.80989583333333
49 2 0.25 0.75 1 1 0 0 12.04427083333334
50 2 0.25 0.25 1 1 0 0 21.80989583333333
51 1 0.625 0.375 0.625 1 0 0 88.54166666666666
52 1 0.375 0.625 0.375 1 0 0 88.54166666666666

Bonds

1 1 1 9
2 1 2 9
3 1 1 10
4 1 3 10
5 1 3 11
6 1 4 11
7 1 2 12
8 1 4 12
9 1 5 13
10 1 6 13
11 1 5 14
12 1 7 14
13 1 7 15
14 1 8 15
15 1 6 16
16 1 8 16
17 1 2 17
18 1 6 17
19 1 1 18
20 1 5 18
21 1 4 19
22 1 8 19
23 1 3 20
24 1 7 20
25 1 9 21
26 1 10 21
27 1 11 21
28 1 12 21
29 1 3 22
30 1 10 22
31 1 11 22
32 1 21 22
33 1 1 23
34 1 9 23
35 1 10 23
36 1 21 23
37 1 4 24
38 1 11 24
39 1 12 24
40 1 21 24
41 1 2 25
42 1 9 25
43 1 12 25
44 1 21 25
45 1 13 26
46 1 14 26
47 1 15 26
48 1 16 26
49 1 7 27
50 1 14 27
51 1 15 27
52 1 26 27
53 1 5 28
54 1 13 28
55 1 14 28
56 1 26 28
57 1 8 29
58 1 15 29
59 1 16 29
60 1 26 29
61 1 6 30
62 1 13 30
63 1 16 30
64 1 26 30
65 1 9 31
66 1 13 31
67 1 17 31
68 1 18 31
69 1 21 31
70 1 23 31
71 1 5 32
72 1 13 32
73 1 18 32
74 1 28 32
75 1 31 32
76 1 1 33
77 1 9 33
78 1 18 33
79 1 23 33
80 1 31 33
81 1 6 34
82 1 13 34
83 1 17 34
84 1 30 34
85 1 31 34
86 1 2 35
87 1 9 35
88 1 17 35
89 1 21 35
90 1 23 35
91 1 25 35
92 1 31 35
93 1 11 36
94 1 15 36
95 1 19 36
96 1 20 36
97 1 26 36
98 1 27 36
99 1 7 37
100 1 15 37
101 1 20 37
102 1 27 37
103 1 36 37
104 1 3 38
105 1 11 38
106 1 20 38
107 1 22 38
108 1 36 38
109 1 8 39
110 1 15 39
111 1 19 39
112 1 26 39
113 1 27 39
114 1 29 39
115 1 36 39
116 1 4 40
117 1 11 40
118 1 19 40
119 1 24 40
120 1 36 40
121 1 12 41
122 1 16 41
123 1 17 41
124 1 19 41
125 1 26 41
126 1 29 41
127 1 30 41
128 1 31 41
129 1 35 41
130 1 6 42
131 1 16 42
132 1 17 42
133 1 30 42
134 1 31 42
135 1 34 42
136 1 35 42
137 1 41 42
138 1 8 43
139 1 16 43
140 1 19 43
141 1 29 43
142 1 39 43
143 1 41 43
144 1 4 44
145 1 12 44
146 1 19 44
147 1 24 44
148 1 40 44
149 1 41 44
150 1 2 45
151 1 12 45
152 1 17 45
153 1 25 45
154 1 35 45
155 1 41 45
156 1 10 46
157 1 14 46
158 1 18 46
159 1 20 46
160 1 21 46
161 1 22 46
162 1 36 46
163 1 38 46
164 1 5 47
165 1 14 47
166 1 18 47
167 1 28 47
168 1 32 47
169 1 46 47
170 1 7 48
171 1 14 48
172 1 20 48
173 1 27 48
174 1 36 48
175 1 37 48
176 1 38 48
177 1 46 48
178 1 3 49
179 1 10 49
180 1 20 49
181 1 22 49
182 1 38 49
183 1 46 49
184 1 1 50
185 1 10 50
186 1 18 50
187 1 21 50
188 1 22 50
189 1 23 50
190 1 33 50
191 1 46 50
192 1 13 51
193 1 14 51
194 1 18 51
195 1 21 51
196 1 23 51
197 1 26 51
198 1 27 51
199 1 28 51
200 1 30 51
201 1 31 51
202 1 32 51
203 1 33 51
204 1 34 51
205 1 36 51
206 1 37 51
207 1 41 51
208 1 42 51
209 1 46 51
210 1 47 51
211 1 48 51
212 1 50 51
213 1 11 52
214 1 12 52
215 1 19 52
216 1 21 52
217 1 22 52
218 1 24 52
219 1 25 52
220 1 26 52
221 1 29 52
222 1 31 52
223 1 35 52
224 1 36 52
225 1 38 52
226 1 39 52
227 1 40 52
228 1 41 52
229 1 43 52
230 1 44 52
231 1 45 52
232 1 46 52
233 1 49 52
234 1 51 52

Impropers

1 1 36 27 37 51
2 1 36 37 48 51
3 1 29 43 41 52
4 1 39 29 26 52
5 1 38 46 49 52
6 1 33 31 23 51
7 1 23 21 50 51
8 1 41 42 30 51
9 1 42 31 34 51
10 1 41 45 35 52
11 1 35 25 21 52
12 1 22 49 46 52
13 1 50 33 23 51
14 1 42 34 30 51
15 1 27 48 37 51
16 1 35 45 25 52
17 1 29 39 43 52
18 1 22 38 49 52
19 1 21 9 35 23
20 1 31 9 33 23
21 1 22 46 10 50
22 1 35 21 23 31
23 1 46 49 22 10
24 1 46 36 38 48
25 1 38 20 49 46
26 1 9 21 35 25
27 1 46 22 21 50
28 1 23 21 10 50
29 1 21 22 10 50
30 1 29 43 16 41
31 1 20 38 36 48
32 1 38 20 46 48
33 1 36 20 48 37
34 1 41 17 35 45
35 1 26 15 39 27
36 1 39 27 36 26
37 1 15 36 27 37
38 1 15 26 39 29
39 1 36 15 27 39
40 1 35 42 41 31
41 1 42 31 35 17
42 1 30 41 16 42
43 1 17 41 35 42
44 1 17 42 31 34
45 1 31 9 23 35
46 1 50 21 46 51
47 1 26 41 30 51
48 1 36 48 46 51
49 1 36 26 27 51
50 1 39 26 36 52
51 1 46 38 36 52
52 1 29 41 26 52
53 1 23 31 21 51
54 1 41 31 42 51
55 1 41 35 31 52
56 1 22 46 21 52
57 1 35 21 31 52
58 1 41 26 16 29
59 1 41 30 16 26
60 1 26 51 36 52
61 1 46 36 51 52
62 1 41 31 51 52
63 1 46 51 21 52
64 1 21 51 31 52
65 1 41 51 26 52
66 1 12 25 45 52
67 1 18 33 50 51
68 1 30 34 13 51
69 1 14 48 27 51
70 1 39 19 43 52
71 1 11 38 22 52
72 1 47 32 18 51
73 1 28 13 32 51
74 1 14 28 47 51
75 1 12 44 24 52
76 1 19 40 44 52
77 1 11 24 40 52
78 1 18 32 31 51
79 1 32 13 31 51
80 1 18 31 33 51
81 1 13 34 31 51
82 1 12 41 44 52
83 1 19 44 41 52
84 1 45 41 12 52
85 1 24 21 12 52
86 1 12 21 25 52
87 1 19 41 43 52
88 1 21 24 11 52
89 1 11 22 21 52
90 1 46 47 18 51
91 1 13 28 26 51
92 1 14 26 28 51
93 1 18 50 46 51
94 1 26 30 13 51
95 1 14 47 46 51
96 1 46 48 14 51
97 1 14 27 26 51
98 1 36 40 19 52
99 1 11 40 36 52
100 1 19 39 36 52
101 1 36 38 11 52
102 1 32 47 28 51
103 1 44 40 24 52
104 1 45 35 2 17
105 1 25 45 2 12
106 1 12 44 4 24
107 1 40 11 4 24
108 1 49 3 22 10
109 1 38 11 22 3
110 1 20 3 38 49
111 1 14 48 7 27
112 1 1 9 23 33
113 1 2 35 25 9
114 1 10 1 23 50
115 1 1 33 50 18
116 1 19 8 39 43
117 1 47 18 32 5
118 1 13 28 32 5
119 1 5 28 47 14
120 1 7 48 20 37
121 1 37 15 7 27
122 1 44 4 40 19
123 1 15 29 39 8
124 1 43 8 29 16
125 1 16 30 42 6
126 1 34 30 13 6
127 1 34 17 42 6
128 1 40 4 44 24
129 1 2 35 45 25
130 1 22 38 3 49
131 1 33 23 1 50
132 1 29 39 8 43
133 1 37 7 48 27
134 1 47 32 28 5
135 1 34 42 30 6

