LAMMPS data file - FEM compression nu=0.450

756 atoms
1 atom types

-0.075661 1.075682 xlo xhi
-0.075579 1.075627 ylo yhi
-0.010000 0.810000 zlo zhi

Atoms

1 1 0.00000000 0.00000000 0.80000000
2 1 0.00000000 0.00000000 0.00000000
3 1 0.00000000 1.00000000 0.80000000
4 1 0.00000000 1.00000000 0.00000000
5 1 1.00000000 0.00000000 0.80000000
6 1 1.00000000 0.00000000 0.00000000
7 1 1.00000000 1.00000000 0.80000000
8 1 1.00000000 1.00000000 0.00000000
9 1 -0.03645998 -0.03623066 0.07603931
10 1 -0.04961359 -0.04959427 0.18292506
11 1 -0.05582606 -0.05576043 0.29145518
12 1 -0.05765070 -0.05758645 0.39997994
13 1 -0.05580424 -0.05577430 0.50851450
14 1 -0.04953674 -0.04962276 0.61708182
15 1 -0.03620134 -0.03640671 0.72381578
16 1 0.00000000 0.12500000 0.80000000
17 1 0.00000000 0.25000000 0.80000000
18 1 0.00000000 0.37500000 0.80000000
19 1 0.00000000 0.50000000 0.80000000
20 1 0.00000000 0.62500000 0.80000000
21 1 0.00000000 0.75000000 0.80000000
22 1 0.00000000 0.87500000 0.80000000
23 1 -0.03663655 1.03603620 0.07597865
24 1 -0.04961358 1.04962059 0.18288585
25 1 -0.05582152 1.05577974 0.29143479
26 1 -0.05763274 1.05762927 0.39998451
27 1 -0.05578580 1.05579823 0.50853105
28 1 -0.04965748 1.04955773 0.61705750
29 1 -0.03640051 1.03617279 0.72395402
30 1 0.00000000 0.12500000 0.00000000
31 1 0.00000000 0.25000000 0.00000000
32 1 0.00000000 0.37500000 0.00000000
33 1 0.00000000 0.50000000 0.00000000
34 1 0.00000000 0.62500000 0.00000000
35 1 0.00000000 0.75000000 0.00000000
36 1 0.00000000 0.87500000 0.00000000
37 1 1.03644016 -0.03626661 0.07610526
38 1 1.04974369 -0.04948213 0.18287343
39 1 1.05589636 -0.05568848 0.29145830
40 1 1.05768882 -0.05755646 0.40000838
41 1 1.05581595 -0.05576688 0.50855407
42 1 1.04968378 -0.04961205 0.61705391
43 1 1.03648306 -0.03636511 0.72399616
44 1 1.00000000 0.12500000 0.80000000
45 1 1.00000000 0.25000000 0.80000000
46 1 1.00000000 0.37500000 0.80000000
47 1 1.00000000 0.50000000 0.80000000
48 1 1.00000000 0.62500000 0.80000000
49 1 1.00000000 0.75000000 0.80000000
50 1 1.00000000 0.87500000 0.80000000
51 1 1.03651965 1.03618307 0.07616668
52 1 1.04977993 1.04937452 0.18283636
53 1 1.05586727 1.05572942 0.29146469
54 1 1.05763733 1.05762352 0.40002751
55 1 1.05578312 1.05582133 0.50858034
56 1 1.04957892 1.04962615 0.61715562
57 1 1.03640208 1.03637934 0.72412736
58 1 1.00000000 0.12500000 0.00000000
59 1 1.00000000 0.25000000 0.00000000
60 1 1.00000000 0.37500000 0.00000000
61 1 1.00000000 0.50000000 0.00000000
62 1 1.00000000 0.62500000 0.00000000
63 1 1.00000000 0.75000000 0.00000000
64 1 1.00000000 0.87500000 0.00000000
65 1 0.12500000 0.00000000 0.00000000
66 1 0.25000000 0.00000000 0.00000000
67 1 0.37500000 0.00000000 0.00000000
68 1 0.50000000 0.00000000 0.00000000
69 1 0.62500000 0.00000000 0.00000000
70 1 0.75000000 0.00000000 0.00000000
71 1 0.87500000 0.00000000 0.00000000
72 1 0.12500000 0.00000000 0.80000000
73 1 0.25000000 0.00000000 0.80000000
74 1 0.37500000 0.00000000 0.80000000
75 1 0.50000000 0.00000000 0.80000000
76 1 0.62500000 0.00000000 0.80000000
77 1 0.75000000 0.00000000 0.80000000
78 1 0.87500000 0.00000000 0.80000000
79 1 0.12500000 1.00000000 0.00000000
80 1 0.25000000 1.00000000 0.00000000
81 1 0.37500000 1.00000000 0.00000000
82 1 0.50000000 1.00000000 0.00000000
83 1 0.62500000 1.00000000 0.00000000
84 1 0.75000000 1.00000000 0.00000000
85 1 0.87500000 1.00000000 0.00000000
86 1 0.12500000 1.00000000 0.80000000
87 1 0.25000000 1.00000000 0.80000000
88 1 0.37500000 1.00000000 0.80000000
89 1 0.50000000 1.00000000 0.80000000
90 1 0.62500000 1.00000000 0.80000000
91 1 0.75000000 1.00000000 0.80000000
92 1 0.87500000 1.00000000 0.80000000
93 1 -0.06566069 0.46445390 0.41034836
94 1 -0.05698029 0.74243862 0.58696704
95 1 -0.05953665 0.67420597 0.23454837
96 1 -0.05837214 0.25617254 0.23413794
97 1 -0.06039495 0.28989539 0.54227566
98 1 -0.05701819 0.49999630 0.18999097
99 1 -0.05478553 0.50003554 0.63144405
100 1 -0.06138507 0.81868409 0.41050344
101 1 -0.06139307 0.18130608 0.41050237
102 1 -0.04780743 0.12628653 0.14269504
103 1 -0.04502962 0.87031794 0.67852148
104 1 -0.04780006 0.87245341 0.14271803
105 1 -0.04554618 0.13139364 0.67741594
106 1 -0.06300432 0.42967771 0.27907624
107 1 -0.06462020 0.64213095 0.36668892
108 1 -0.06196670 0.42997193 0.54191981
109 1 -0.04754746 0.33245020 0.67639789
110 1 -0.05833581 0.88525413 0.50062446
111 1 -0.04748064 0.66776475 0.67706472
112 1 -0.05678908 0.91827173 0.27619603
113 1 -0.04630456 0.36617615 0.11655326
114 1 -0.05835818 0.14893098 0.27738495
115 1 -0.05828955 0.11165808 0.49970519
116 1 -0.04399553 0.63297115 0.10289234
117 1 -0.06433565 0.64192647 0.45405352
118 1 -0.06462844 0.35793308 0.36669902
119 1 -0.06297550 0.57037300 0.27903453
120 1 -0.06196205 0.57008722 0.54194423
121 1 -0.06323397 0.28733622 0.45419134
122 1 -0.05887213 0.92251417 0.36556871
123 1 -0.05858806 0.05322341 0.40469152
124 1 -0.03853640 0.43437764 0.72222705
125 1 -0.03345695 0.53452659 0.06190434
126 1 -0.06210237 0.25254841 0.32260302
127 1 -0.06150595 0.74688090 0.49830145
128 1 -0.05151953 0.07304099 0.18889227
129 1 -0.03452847 0.26943333 0.06787239
130 1 -0.03137383 0.72712358 0.05578136
131 1 -0.03796644 0.23721669 0.72179787
132 1 -0.03760710 0.76293752 0.72141991
133 1 -0.05257110 0.95128437 0.59027752
134 1 -0.05217274 0.06153003 0.59889978
135 1 -0.05150779 0.92298758 0.18739146
136 1 -0.06209031 0.74749222 0.32257588
137 1 -0.05643028 0.36249203 0.19037752
138 1 -0.05870386 0.39615141 0.58644374
139 1 -0.06406156 0.53533404 0.49779267
140 1 -0.03854350 0.56567454 0.72182852
141 1 -0.05840865 0.93195348 0.45484312
142 1 -0.05780121 0.00702779 0.36894854
143 1 -0.03554431 0.43382323 0.06780964
144 1 -0.06470024 0.53543641 0.32302668
145 1 -0.03583983 0.89631421 0.72525690
146 1 -0.03470081 0.92428348 0.06987887
147 1 -0.03720180 0.09266076 0.71936866
148 1 -0.03425025 0.08324625 0.06775882
149 1 -0.05559731 0.18810596 0.58770451
150 1 -0.05233616 0.77342946 0.63176439
151 1 -0.05308941 0.15238388 0.18906734
152 1 -0.05703497 0.81348759 0.23335945
153 1 -0.06296718 0.74845056 0.41039218
154 1 -0.05561829 0.81198492 0.58781919
155 1 -0.04990780 0.26281333 0.14487728
156 1 -0.05236706 0.22656393 0.63181760
157 1 -0.05003531 0.73708288 0.14481036
158 1 -0.06503446 0.42905615 0.45399785
159 1 -0.05686325 0.56884019 0.19006737
160 1 -0.02365095 0.85265632 0.76462204
161 1 -0.02300176 0.14668657 0.76402282
162 1 -0.04348555 0.93977034 0.68305217
163 1 -0.02392764 0.14647078 0.03626650
164 1 -0.03155642 0.85790480 0.05867155
165 1 -0.04645413 0.06485836 0.13958440
166 1 -0.04500573 0.07086729 0.67228999
167 1 -0.04655119 0.93405086 0.13935132
168 1 1.06568163 0.46446464 0.41037960
169 1 1.05691053 0.74256379 0.58696159
170 1 1.05964695 0.67416458 0.23458199
171 1 1.05849338 0.25621000 0.23431541
172 1 1.06034985 0.28990922 0.54226873
173 1 1.05702491 0.50006301 0.18994021
174 1 1.05478453 0.50005964 0.63134962
175 1 1.06139601 0.81870400 0.41056460
176 1 1.06142131 0.18132244 0.41054094
177 1 1.04804087 0.12637588 0.14271989
178 1 1.04475094 0.87067030 0.67840375
179 1 1.04790717 0.87251747 0.14256041
180 1 1.04504281 0.13125248 0.67749829
181 1 1.06303658 0.42971135 0.27909158
182 1 1.06465623 0.64213140 0.36672008
183 1 1.06194884 0.42999002 0.54193988
184 1 1.04730318 0.33231877 0.67664902
185 1 1.05833127 0.88528392 0.50071071
186 1 1.04740659 0.66775364 0.67674874
187 1 1.05684004 0.91820465 0.27625624
188 1 1.04686268 0.36637418 0.11640887
189 1 1.05841426 0.14899074 0.27743487
190 1 1.05831721 0.11165893 0.49978201
191 1 1.04423894 0.63302842 0.10278473
192 1 1.06435448 0.64194551 0.45409539
193 1 1.06465559 0.35796704 0.36673341
194 1 1.06304609 0.57036310 0.27906368
195 1 1.06197203 0.57007813 0.54191587
196 1 1.06325741 0.28736266 0.45423914
197 1 1.05889623 0.92247997 0.36563523
198 1 1.05863178 0.05324735 0.40473493
199 1 1.03852608 0.43450569 0.72197496
200 1 1.03373109 0.53450053 0.06136275
201 1 1.06212259 0.25258457 0.32261355
202 1 1.06149863 0.74691890 0.49836478
203 1 1.05154552 0.07314226 0.18884070
204 1 1.03442669 0.26962158 0.06794478
205 1 1.03141413 0.72717401 0.05653435
206 1 1.03763967 0.23702158 0.72149035
207 1 1.03725786 0.76290788 0.72127567
208 1 1.05256457 0.95138133 0.59035064
209 1 1.05226525 0.06152514 0.59901047
210 1 1.05157034 0.92283717 0.18741820
211 1 1.06212126 0.74749042 0.32262686
212 1 1.05651190 0.36245243 0.19032840
213 1 1.05877004 0.39617716 0.58646882
214 1 1.06406821 0.53534438 0.49784989
215 1 1.03875694 0.56566867 0.72155204
216 1 1.05840890 0.93196123 0.45492220
217 1 1.05783061 0.00706107 0.36898135
218 1 1.03561351 0.43380678 0.06713715
219 1 1.06472525 0.53544707 0.32303104
220 1 1.03611550 0.89655916 0.72532114
221 1 1.03435811 0.92447135 0.07009324
222 1 1.03728111 0.09244036 0.71955863
223 1 1.03441527 0.08287641 0.06799991
224 1 1.05567178 0.18804701 0.58774164
225 1 1.05243034 0.77347924 0.63196244
226 1 1.05309195 0.15236555 0.18916457
227 1 1.05711625 0.81345139 0.23342873
228 1 1.06296897 0.74845331 0.41045714
229 1 1.05562115 0.81198203 0.58772575
230 1 1.04994817 0.26296395 0.14460105
231 1 1.05233384 0.22653731 0.63184141
232 1 1.05010073 0.73691096 0.14472066
233 1 1.06504870 0.42905387 0.45403878
234 1 1.05693599 0.56873309 0.19009996
235 1 1.02355204 0.85267393 0.76354227
236 1 1.02354121 0.14672333 0.76348562
237 1 1.04340550 0.93971975 0.68324205
238 1 1.02460668 0.14670115 0.03532335
239 1 1.03177497 0.85777809 0.05848272
240 1 1.04634998 0.06490313 0.13938018
241 1 1.04503683 0.07075072 0.67282923
242 1 1.04644825 0.93426483 0.13972617
243 1 0.51467431 -0.06557915 0.37483754
244 1 0.27368171 -0.05786524 0.57803278
245 1 0.75497332 -0.05737932 0.57822758
246 1 0.27370530 -0.05794230 0.22183941
247 1 0.69599850 -0.06001031 0.24779366
248 1 0.20757556 -0.06199089 0.39998531
249 1 0.82132268 -0.06129451 0.40000409
250 1 0.51389594 -0.05494224 0.62925474
251 1 0.51396946 -0.05477340 0.17072653
252 1 0.16840700 -0.04495447 0.11694637
253 1 0.16485367 -0.04500196 0.68296439
254 1 0.86313560 -0.04435244 0.68311651
255 1 0.86217748 -0.04445065 0.11861701
256 1 0.33026074 -0.06397293 0.34952088
257 1 0.45341047 -0.06389254 0.50096152
258 1 0.69893836 -0.06349023 0.34947020
259 1 0.33768566 -0.04460701 0.69420454
260 1 0.87854842 -0.05737078 0.27100883
261 1 0.87847322 -0.05740675 0.52899507
262 1 0.63054031 -0.04680317 0.68078211
263 1 0.09346136 -0.05772982 0.29635279
264 1 0.34256719 -0.04167749 0.09270909
265 1 0.09215126 -0.05744840 0.51060412
266 1 0.62893243 -0.04672636 0.11640819
267 1 0.57568990 -0.06372528 0.50097552
268 1 0.45342143 -0.06388244 0.29903970
269 1 0.26917203 -0.06240693 0.47606887
270 1 0.69892203 -0.06349512 0.45053617
271 1 0.57496672 -0.06134384 0.24806468
272 1 0.50577058 -0.03746028 0.07373448
273 1 0.94065355 -0.05821701 0.34761182
274 1 0.43438864 -0.03683763 0.72691362
275 1 0.00242191 -0.05777465 0.42183212
276 1 0.39401362 -0.05942433 0.22228558
277 1 0.63458646 -0.05916543 0.57771361
278 1 0.23279140 -0.03864578 0.71596915
279 1 0.07945841 -0.05191766 0.19302677
280 1 0.23442968 -0.03837355 0.08342361
281 1 0.09741062 -0.05240241 0.60595785
282 1 0.93280808 -0.05142540 0.19126440
283 1 0.93265281 -0.05157933 0.60890575
284 1 0.73692041 -0.03428671 0.73415880
285 1 0.74980700 -0.03657810 0.07502891
286 1 0.20949020 -0.06044141 0.29813547
287 1 0.75955233 -0.06181962 0.32387395
288 1 0.39405834 -0.05937143 0.57770014
289 1 0.63776557 -0.06471131 0.42520106
290 1 0.94061253 -0.05823632 0.45237820
291 1 0.46245151 -0.02577653 0.04078686
292 1 0.02698858 -0.05798470 0.36672838
293 1 0.56784081 -0.04023777 0.71550646
294 1 0.39149004 -0.06505807 0.42517803
295 1 0.07468961 -0.03523495 0.72731796
296 1 0.91993787 -0.03912363 0.71124600
297 1 0.91029576 -0.03702459 0.08246277
298 1 0.03003666 -0.03421967 0.06770099
299 1 0.75117999 -0.05274546 0.16982100
300 1 0.81299675 -0.05431752 0.60473331
301 1 0.14867900 -0.05545288 0.22136278
302 1 0.27729447 -0.05334510 0.62959613
303 1 0.51430028 -0.05982021 0.57769267
304 1 0.27734765 -0.05333244 0.17031033
305 1 0.75097088 -0.05290163 0.62976413
306 1 0.81305811 -0.05420781 0.19517296
307 1 0.16316687 -0.05479930 0.59305195
308 1 0.57613830 -0.06501654 0.34960589
309 1 0.20941260 -0.06045477 0.50181594
310 1 0.98238009 -0.04184049 0.68992620
311 1 0.98240486 -0.04205575 0.10960657
312 1 0.17191475 -0.03494703 0.72756262
313 1 0.85570651 -0.03370350 0.73430662
314 1 0.04913621 -0.04244736 0.11243274
315 1 0.04751012 -0.04765880 0.64600573
316 1 0.15226338 -0.02982957 0.05410714
317 1 0.84446882 -0.03571096 0.07505828
318 1 0.51464462 1.06562682 0.37482640
319 1 0.27365875 1.05788071 0.57798808
320 1 0.75497068 1.05744465 0.57828798
321 1 0.27375876 1.05794738 0.22190702
322 1 0.69601410 1.06003002 0.24779705
323 1 0.20757549 1.06201133 0.39998131
324 1 0.82128248 1.06133980 0.40000744
325 1 0.51398424 1.05484021 0.62931156
326 1 0.51382797 1.05499385 0.17063946
327 1 0.16866376 1.04509745 0.11635671
328 1 0.16481351 1.04471102 0.68264063
329 1 0.86299167 1.04430286 0.68307831
330 1 0.86225825 1.04442894 0.11834746
331 1 0.33026747 1.06400003 0.34952643
332 1 0.45339914 1.06391977 0.50097026
333 1 0.69891641 1.06352183 0.34946297
334 1 0.33781360 1.04420639 0.69405539
335 1 0.87851970 1.05741344 0.27099060
336 1 0.87844689 1.05747771 0.52902542
337 1 0.63045063 1.04708022 0.68050464
338 1 0.09344753 1.05775694 0.29634014
339 1 0.34218902 1.04132907 0.09276927
340 1 0.09215720 1.05748185 0.51063114
341 1 0.62912660 1.04653503 0.11716180
342 1 0.57568668 1.06376634 0.50100856
343 1 0.45339114 1.06391018 0.29903745
344 1 0.26914270 1.06243622 0.47607177
345 1 0.69891311 1.06353486 0.45053678
346 1 0.57492910 1.06130531 0.24805340
347 1 0.50587012 1.03738405 0.07385053
348 1 0.94061881 1.05826463 0.34760564
349 1 0.43436462 1.03718338 0.72658650
350 1 0.00245197 1.05781415 0.42184868
351 1 0.39403881 1.05942745 0.22220712
352 1 0.63456447 1.05922820 0.57767053
353 1 0.23279830 1.03882176 0.71610546
354 1 0.07943015 1.05198355 0.19302488
355 1 0.23443581 1.03844236 0.08340760
356 1 0.09742369 1.05236425 0.60593352
357 1 0.93273778 1.05149925 0.19115535
358 1 0.93257384 1.05159561 0.60894101
359 1 0.73639375 1.03457109 0.73448837
360 1 0.74986910 1.03636023 0.07511759
361 1 0.20948581 1.06046997 0.29812404
362 1 0.75953799 1.06185186 0.32387715
363 1 0.39399243 1.05938342 0.57766322
364 1 0.63776911 1.06476564 0.42522452
365 1 0.94056738 1.05828573 0.45238427
366 1 0.46250523 1.02621130 0.04089781
367 1 0.02700919 1.05799568 0.36672737
368 1 0.56785044 1.04052362 0.71523217
369 1 0.39151443 1.06507714 0.42518336
370 1 0.07452499 1.03525033 0.72691409
371 1 0.92013146 1.03924221 0.71139417
372 1 0.91022327 1.03727811 0.08212763
373 1 0.02986030 1.03408674 0.06772651
374 1 0.75124537 1.05285705 0.16992308
375 1 0.81299281 1.05426605 0.60504599
376 1 0.14877789 1.05537367 0.22128574
377 1 0.27728008 1.05340079 0.62970684
378 1 0.51426823 1.05988601 0.57765483
379 1 0.27722606 1.05336954 0.17006485
380 1 0.75094811 1.05293808 0.62987897
381 1 0.81305750 1.05427474 0.19522365
382 1 0.16313360 1.05467443 0.59308288
383 1 0.57613063 1.06504699 0.34962077
384 1 0.20941102 1.06047313 0.50184178
385 1 0.98254681 1.04178675 0.69001078
386 1 0.98232802 1.04191775 0.10970895
387 1 0.17179209 1.03514342 0.72789643
388 1 0.85555012 1.03379604 0.73428012
389 1 0.04943864 1.04244435 0.11239152
390 1 0.04750497 1.04768020 0.64579778
391 1 0.15218744 1.03004898 0.05380804
392 1 0.84449028 1.03603343 0.07494957
393 1 0.50000000 0.50000000 0.00000000
394 1 0.69686356 0.29957657 0.00000000
395 1 0.69837982 0.70761735 0.00000000
396 1 0.29125682 0.29700904 0.00000000
397 1 0.29395014 0.69695786 0.00000000
398 1 0.50132011 0.20973437 0.00000000
399 1 0.79484206 0.50294996 0.00000000
400 1 0.49480974 0.79209795 0.00000000
401 1 0.21009274 0.49396475 0.00000000
402 1 0.17009620 0.16806799 0.00000000
403 1 0.82990380 0.16806799 0.00000000
404 1 0.83193201 0.82990380 0.00000000
405 1 0.17009620 0.83193201 0.00000000
406 1 0.43154762 0.36011905 0.00000000
407 1 0.62315291 0.42943046 0.00000000
408 1 0.43169178 0.64679038 0.00000000
409 1 0.84855942 0.36640390 0.00000000
410 1 0.36555342 0.84800652 0.00000000
411 1 0.84632892 0.63923454 0.00000000
412 1 0.63923454 0.84632892 0.00000000
413 1 0.36076546 0.15367108 0.00000000
414 1 0.15739983 0.36061227 0.00000000
415 1 0.16939806 0.63363327 0.00000000
416 1 0.62525743 0.14526249 0.00000000
417 1 0.62256202 0.57789587 0.00000000
418 1 0.36011905 0.48176292 0.00000000
419 1 0.57937986 0.31886022 0.00000000
420 1 0.56872352 0.69499642 0.00000000
421 1 0.31462734 0.58364652 0.00000000
422 1 0.09249854 0.53741007 0.00000000
423 1 0.90573736 0.46344800 0.00000000
424 1 0.46018217 0.91142052 0.00000000
425 1 0.53720597 0.08759975 0.00000000
426 1 0.27880827 0.40366964 0.00000000
427 1 0.73987305 0.60734377 0.00000000
428 1 0.89353545 0.26208947 0.00000000
429 1 0.09999424 0.26526336 0.00000000
430 1 0.26959096 0.09836095 0.00000000
431 1 0.73936717 0.10909108 0.00000000
432 1 0.90163905 0.73040904 0.00000000
433 1 0.27038896 0.90191865 0.00000000
434 1 0.73471111 0.90062722 0.00000000
435 1 0.10724363 0.73791215 0.00000000
436 1 0.38944100 0.25378827 0.00000000
437 1 0.38493629 0.75026871 0.00000000
438 1 0.74278173 0.39521385 0.00000000
439 1 0.52135115 0.59780139 0.00000000
440 1 0.55447503 0.91341208 0.00000000
441 1 0.08628043 0.44135651 0.00000000
442 1 0.43976417 0.08487588 0.00000000
443 1 0.91311218 0.55563891 0.00000000
444 1 0.52507182 0.40104135 0.00000000
445 1 0.90288488 0.09711512 0.00000000
446 1 0.90288488 0.90288488 0.00000000
447 1 0.09711512 0.90288488 0.00000000
448 1 0.09711512 0.09711512 0.00000000
449 1 0.20371718 0.74348991 0.00000000
450 1 0.74091662 0.80083660 0.00000000
451 1 0.19980828 0.25812541 0.00000000
452 1 0.78855827 0.28183769 0.00000000
453 1 0.69974445 0.50508708 0.00000000
454 1 0.79317824 0.71922418 0.00000000
455 1 0.28022568 0.20230844 0.00000000
456 1 0.28087903 0.79782731 0.00000000
457 1 0.71886984 0.20779865 0.00000000
458 1 0.42406615 0.55552009 0.00000000
459 1 0.63001422 0.24051088 0.00000000
460 1 0.81890560 0.92668318 0.00000000
461 1 0.92526482 0.18045452 0.00000000
462 1 0.18252006 0.92734711 0.00000000
463 1 0.92729119 0.81763954 0.00000000
464 1 0.18236046 0.07270881 0.00000000
465 1 0.81943117 0.07485484 0.00000000
466 1 0.07344111 0.18108930 0.00000000
467 1 0.07489099 0.81954581 0.00000000
468 1 0.50000000 0.50000000 0.80000000
469 1 0.69686356 0.29957657 0.80000000
470 1 0.69837982 0.70761735 0.80000000
471 1 0.29125682 0.29700904 0.80000000
472 1 0.29395014 0.69695786 0.80000000
473 1 0.50132011 0.20973437 0.80000000
474 1 0.79484206 0.50294996 0.80000000
475 1 0.49480974 0.79209795 0.80000000
476 1 0.21009274 0.49396475 0.80000000
477 1 0.17009620 0.16806799 0.80000000
478 1 0.82990380 0.16806799 0.80000000
479 1 0.83193201 0.82990380 0.80000000
480 1 0.17009620 0.83193201 0.80000000
481 1 0.43154762 0.36011905 0.80000000
482 1 0.62315291 0.42943046 0.80000000
483 1 0.43169178 0.64679038 0.80000000
484 1 0.84855942 0.36640390 0.80000000
485 1 0.36555342 0.84800652 0.80000000
486 1 0.84632892 0.63923454 0.80000000
487 1 0.63923454 0.84632892 0.80000000
488 1 0.36076546 0.15367108 0.80000000
489 1 0.15739983 0.36061227 0.80000000
490 1 0.16939806 0.63363327 0.80000000
491 1 0.62525743 0.14526249 0.80000000
492 1 0.62256202 0.57789587 0.80000000
493 1 0.36011905 0.48176292 0.80000000
494 1 0.57937986 0.31886022 0.80000000
495 1 0.56872352 0.69499642 0.80000000
496 1 0.31462734 0.58364652 0.80000000
497 1 0.09249854 0.53741007 0.80000000
498 1 0.90573736 0.46344800 0.80000000
499 1 0.46018217 0.91142052 0.80000000
500 1 0.53720597 0.08759975 0.80000000
501 1 0.27880827 0.40366964 0.80000000
502 1 0.73987305 0.60734377 0.80000000
503 1 0.89353545 0.26208947 0.80000000
504 1 0.09999424 0.26526336 0.80000000
505 1 0.26959096 0.09836095 0.80000000
506 1 0.73936717 0.10909108 0.80000000
507 1 0.90163905 0.73040904 0.80000000
508 1 0.27038896 0.90191865 0.80000000
509 1 0.73471111 0.90062722 0.80000000
510 1 0.10724363 0.73791215 0.80000000
511 1 0.38944100 0.25378827 0.80000000
512 1 0.38493629 0.75026871 0.80000000
513 1 0.74278173 0.39521385 0.80000000
514 1 0.52135115 0.59780139 0.80000000
515 1 0.55447503 0.91341208 0.80000000
516 1 0.08628043 0.44135651 0.80000000
517 1 0.43976417 0.08487588 0.80000000
518 1 0.91311218 0.55563891 0.80000000
519 1 0.52507182 0.40104135 0.80000000
520 1 0.90288488 0.09711512 0.80000000
521 1 0.90288488 0.90288488 0.80000000
522 1 0.09711512 0.90288488 0.80000000
523 1 0.09711512 0.09711512 0.80000000
524 1 0.20371718 0.74348991 0.80000000
525 1 0.74091662 0.80083660 0.80000000
526 1 0.19980828 0.25812541 0.80000000
527 1 0.78855827 0.28183769 0.80000000
528 1 0.69974445 0.50508708 0.80000000
529 1 0.79317824 0.71922418 0.80000000
530 1 0.28022568 0.20230844 0.80000000
531 1 0.28087903 0.79782731 0.80000000
532 1 0.71886984 0.20779865 0.80000000
533 1 0.42406615 0.55552009 0.80000000
534 1 0.63001422 0.24051088 0.80000000
535 1 0.81890560 0.92668318 0.80000000
536 1 0.92526482 0.18045452 0.80000000
537 1 0.18252006 0.92734711 0.80000000
538 1 0.92729119 0.81763954 0.80000000
539 1 0.18236046 0.07270881 0.80000000
540 1 0.81943117 0.07485484 0.80000000
541 1 0.07344111 0.18108930 0.80000000
542 1 0.07489099 0.81954581 0.80000000
543 1 0.56957671 0.52749673 0.45019708
544 1 0.29107446 0.65566892 0.30088603
545 1 0.29277696 0.29483639 0.26359944
546 1 0.72273215 0.38756917 0.24598368
547 1 0.36945746 0.28074442 0.54248728
548 1 0.75567582 0.75577777 0.28751078
549 1 0.20029799 0.61948666 0.48682479
550 1 0.75220772 0.31519948 0.57064947
551 1 0.79506028 0.79018777 0.59569795
552 1 0.52089965 0.55562559 0.21290319
553 1 0.52860378 0.21292938 0.39928573
554 1 0.48913368 0.73035685 0.55766576
555 1 0.22029245 0.79619225 0.56889279
556 1 0.77630749 0.56465419 0.49955447
557 1 0.60753865 0.81454217 0.45769552
558 1 0.17120747 0.19386306 0.16498040
559 1 0.39655556 0.49244728 0.61489356
560 1 0.16210360 0.47918938 0.35363465
561 1 0.82745818 0.17284241 0.16995924
562 1 0.16516043 0.19353276 0.63127594
563 1 0.38317226 0.83085657 0.40972791
564 1 0.30425897 0.16068535 0.37899408
565 1 0.56123953 0.21444598 0.58651685
566 1 0.71964386 0.53395792 0.17582795
567 1 0.17225058 0.85739085 0.15913524
568 1 0.48491808 0.32265958 0.14972604
569 1 0.47051556 0.82763749 0.24456277
570 1 0.83915972 0.27751368 0.37720478
571 1 0.84035875 0.51583725 0.31893428
572 1 0.82704333 0.17300402 0.62987703
573 1 0.82745828 0.82717644 0.17000059
574 1 0.30861859 0.49896185 0.19299291
575 1 0.20443344 0.39773134 0.59867378
576 1 0.63359816 0.62915388 0.58937218
577 1 0.12690697 0.34303816 0.47349595
578 1 0.15340347 0.72934480 0.42311470
579 1 0.84977545 0.72173726 0.44352650
580 1 0.34616422 0.41584923 0.41218601
581 1 0.57598925 0.39783012 0.60916290
582 1 0.74003950 0.09553083 0.30131838
583 1 0.37493893 0.72585754 0.14231318
584 1 0.48490788 0.15879514 0.25036919
585 1 0.49665587 0.37724639 0.33432436
586 1 0.60901079 0.67293904 0.15419648
587 1 0.80466330 0.50002627 0.60837883
588 1 0.68945514 0.15317532 0.48846007
589 1 0.17408370 0.36242328 0.23778233
590 1 0.34662077 0.17534371 0.13730757
591 1 0.51483257 0.71596302 0.34423522
592 1 0.58053803 0.16526155 0.16631898
593 1 0.65371383 0.42365342 0.36715999
594 1 0.49148288 0.33352728 0.50806714
595 1 0.38379641 0.22490101 0.67788319
596 1 0.91435640 0.38014290 0.17861897
597 1 0.18043823 0.24544112 0.32715817
598 1 0.10535719 0.63374937 0.20345115
599 1 0.15961623 0.13188360 0.46036545
600 1 0.22351412 0.57620938 0.63314984
601 1 0.21011711 0.89707404 0.28656441
602 1 0.34208105 0.55671075 0.28811759
603 1 0.67267880 0.54946835 0.34114166
604 1 0.74451470 0.86578524 0.36968579
605 1 0.52887752 0.88199764 0.38503103
606 1 0.61994701 0.89046099 0.55684634
607 1 0.30216918 0.34383980 0.17432143
608 1 0.31847162 0.38976227 0.67655427
609 1 0.86681973 0.39391910 0.43884047
610 1 0.89952630 0.27556627 0.24877513
611 1 0.35701015 0.12576718 0.26943728
612 1 0.42806590 0.66469851 0.47249794
613 1 0.88976753 0.83229036 0.67574669
614 1 0.89188442 0.33070567 0.60464620
615 1 0.33486459 0.77228115 0.65771681
616 1 0.65995971 0.23853457 0.66807194
617 1 0.51265705 0.60950474 0.68457193
618 1 0.89008967 0.79617494 0.30088578
619 1 0.22202357 0.87780669 0.51848742
620 1 0.32991912 0.82849310 0.25143312
621 1 0.43136858 0.89029996 0.11912809
622 1 0.70330644 0.33925707 0.12754309
623 1 0.42726692 0.11086305 0.49159317
624 1 0.37236646 0.86258161 0.60654860
625 1 0.87711880 0.66422196 0.21165925
626 1 0.10416874 0.49557250 0.43866765
627 1 0.68519987 0.66478802 0.38837290
628 1 0.88994126 0.26361916 0.49016358
629 1 0.63264228 0.88754789 0.23962286
630 1 0.60830617 0.45270223 0.15286160
631 1 0.90373635 0.08598107 0.44625940
632 1 0.78960962 0.88353615 0.51346430
633 1 0.09583173 0.90081612 0.68072056
634 1 0.77902400 0.64093477 0.66454287
635 1 0.12067040 0.69822041 0.54716152
636 1 0.66626407 0.09794186 0.39975012
637 1 0.49496187 0.61393082 0.12086151
638 1 0.11913301 0.55493063 0.11402169
639 1 0.40996237 0.51378597 0.13503601
640 1 0.65733243 0.49994786 0.66966881
641 1 0.89288371 0.71670349 0.65681852
642 1 0.70514172 0.50205090 0.51416744
643 1 0.43996731 0.90287603 0.52814529
644 1 0.50425870 0.83539515 0.66953515
645 1 0.66217534 0.74653560 0.65600330
646 1 0.73916864 0.87315587 0.63014125
647 1 0.27442149 0.58602347 0.41211172
648 1 0.11205299 0.18529288 0.12724273
649 1 0.56237464 0.66466635 0.48894835
650 1 0.86786952 0.63963258 0.33543982
651 1 0.24538753 0.30635918 0.36009977
652 1 0.08238116 0.54963236 0.70522773
653 1 0.30273051 0.45354291 0.54984294
654 1 0.11750556 0.65548802 0.35312572
655 1 0.65634241 0.12399255 0.63278048
656 1 0.88002954 0.11773372 0.34141611
657 1 0.88035965 0.88398092 0.52880099
658 1 0.15500832 0.53889552 0.55621334
659 1 0.42738835 0.25507097 0.35048680
660 1 0.13515620 0.90633476 0.12890030
661 1 0.90316644 0.66538087 0.52159346
662 1 0.23868915 0.63152616 0.12880558
663 1 0.91651073 0.89679752 0.39870417
664 1 0.92835817 0.84733770 0.07222645
665 1 0.94862987 0.05027093 0.14826072
666 1 0.12876241 0.15900910 0.67141264
667 1 0.48876104 0.10240660 0.68628053
668 1 0.12052568 0.89016741 0.40721452
669 1 0.58039171 0.81406057 0.14214331
670 1 0.29508459 0.70674768 0.53731447
671 1 0.10912622 0.28393583 0.58084925
672 1 0.08137202 0.74714736 0.68454093
673 1 0.91037073 0.08711419 0.66703945
674 1 0.56161625 0.12122915 0.46728551
675 1 0.10363747 0.30226373 0.68666908
676 1 0.39783672 0.53353562 0.48116290
677 1 0.38573931 0.47180189 0.20308094
678 1 0.60424309 0.26364658 0.32556350
679 1 0.09183192 0.09487801 0.34365440
680 1 0.14745219 0.04650678 0.27752052
681 1 0.58412566 0.66767169 0.28134020
682 1 0.10153504 0.91965249 0.55959454
683 1 0.91385420 0.53742074 0.26311325
684 1 0.88124185 0.40751722 0.51383485
685 1 0.68405003 0.30149768 0.43727368
686 1 0.76462870 0.64935584 0.12587682
687 1 0.89248309 0.50513190 0.12165776
688 1 0.26186046 0.87387842 0.65005378
689 1 0.73627238 0.73770376 0.48940822
690 1 0.03399321 0.75820324 0.27531277
691 1 0.45803243 0.07996705 0.39328633
692 1 0.39855929 0.65611566 0.23674824
693 1 0.17709326 0.06724033 0.07705236
694 1 0.02914510 0.46728037 0.25244700
695 1 0.18072247 0.30282869 0.08322788
696 1 0.48746463 0.11496505 0.10601783
697 1 0.88640910 0.55097416 0.44168091
698 1 0.31249766 0.86061882 0.13124990
699 1 0.80301372 0.93906501 0.23460250
700 1 0.13214595 0.36030476 0.33692592
701 1 0.36653712 0.79228768 0.34197855
702 1 0.19965429 0.05047693 0.34170464
703 1 0.51781403 0.24339373 0.68643737
704 1 0.07205864 0.27218251 0.39950950
705 1 0.56242851 0.88642568 0.43382510
706 1 0.27477998 0.92120345 0.37675553
707 1 0.41048262 0.62287886 0.67768903
708 1 0.30780302 0.13282950 0.54643213
709 1 0.42644836 0.25617716 0.44925035
710 1 0.05828998 0.05232822 0.16227037
711 1 0.76200733 0.46673081 0.13869623
712 1 0.73592937 0.37887088 0.69177316
713 1 0.56752326 0.05536398 0.35598692
714 1 0.80373849 0.38683343 0.33405573
715 1 0.24761038 0.28277993 0.45199652
716 1 0.10035896 0.24075790 0.26298746
717 1 0.60759815 0.50024287 0.24110655
718 1 0.36715396 0.63894794 0.60498537
719 1 0.60451697 0.73655480 0.32560055
720 1 0.78000663 0.79252849 0.70921021
721 1 0.70510147 0.79145583 0.11496067
722 1 0.52667967 0.50001897 0.58742235
723 1 0.48760790 0.60393612 0.33617908
724 1 0.45093832 0.39944373 0.71650111
725 1 0.54492171 0.35952553 0.41897061
726 1 0.28422826 0.51969065 0.72742398
727 1 0.68606200 0.07936993 0.20809627
728 1 0.70000773 0.15446621 0.12723000
729 1 0.21090404 0.41677053 0.27647202
730 1 0.90327078 0.12688355 0.24031415
731 1 0.43638413 0.35468550 0.59548462
732 1 0.09612221 0.89979633 0.24037833
733 1 0.92166153 0.41501729 0.70924874
734 1 0.76266914 0.63297227 0.54859375
735 1 0.03308941 0.17893178 0.57873269
736 1 0.95692063 0.59231907 0.49731728
737 1 0.39802978 0.98450228 0.39781804
738 1 0.50863351 0.71942386 0.43192399
739 1 0.74360923 0.17351318 0.68293431
740 1 0.21292719 0.50067269 0.41896376
741 1 0.25626116 0.32849776 0.58701972
742 1 0.87729390 0.58525508 0.68459933
743 1 0.07969820 0.82866934 0.48407441
744 1 0.89066925 0.24317381 0.10197643
745 1 0.26436856 0.10656120 0.68420713
746 1 0.73083543 0.22540145 0.19863364
747 1 0.83929572 0.02820226 0.57383265
748 1 0.80030458 0.93660139 0.59846380
749 1 0.31207767 0.23127662 0.07782924
750 1 0.77246168 0.57496555 0.27209398
751 1 0.27219719 0.58465137 0.28874545
752 1 0.30431766 0.04109387 0.61994065
753 1 0.03471573 0.57347970 0.33365660
754 1 0.23218717 0.44165309 0.10543634
755 1 0.75505238 0.45831966 0.26790023
756 1 0.90580590 0.42845213 0.26904276
