LAMMPS data file for tetmsm

10710 atoms
59914 bonds
41904 impropers

2 atom types
1 bond types
1 improper types

-12.9 38.7 xlo xhi
-0.605 1.815 ylo yhi
-0.48972523318025474 0.49027476681974524 zlo zhi

Masses

1 1.0
2 1.0

Atoms  # hybrid full sphere

1 2 0 0 0.2452747668197452 1 -0.003431070782345028 0 0.0003622017840930066
2 2 0 0 -0.2447252331802548 1 -0.003426609878839327 0 0.0003618356958874194
3 2 0 1.21 0.2452747668197452 1 -0.003426609878839366 0 0.0003669537835848053
4 2 0 1.21 -0.2447252331802548 1 -0.003431070782345007 0 0.000367324582240779
5 2 25.8 0 0.2452747668197452 1 0.003431070782345028 0 0.0003641114730239582
6 2 25.8 0 -0.2447252331802548 1 0.003426609878839327 0 0.0003636969453974194
7 2 25.8 1.21 0.2452747668197452 1 0.003236458658036508 0 0.0003511924182723141
8 2 25.8 1.21 -0.2447252331802548 1 0.003426609878839327 0 0.0003669537835844549
9 2 0 0 -0.1222252331802549 1 -0.005156848891514118 0 0.000341758302031009
10 2 0 0 0.0002747668197445319 1 -0.005833015289112075 0 0.0004260755270388784
11 2 0 0 0.1227747668197449 1 -0.005072080423270289 0 0.0003335920761898609
12 2 0 0.1209999999999998 0.2452747668197452 1 -0.005400307916863624 0 0.0003641091043158212
13 2 0 0.2419999999999996 0.2452747668197452 1 -0.00606482220915243 0 0.0006973682559337617
14 2 0 0.3629999999999992 0.2452747668197452 1 -0.005439482163515225 0 0.0003467662629948965
15 2 0 0.4839999999999987 0.2452747668197452 1 -0.005434910216623064 0 0.0006553230884834827
16 2 0 0.6049999999999989 0.2452747668197452 1 -0.005737607182594756 0 0.000433744786494102
17 2 0 0.7259999999999991 0.2452747668197452 1 -0.005775498227484022 0 0.0005006494313087315
18 2 0 0.8469999999999993 0.2452747668197452 1 -0.004853505192508776 0 0.0004127017022496106
19 2 0 0.9679999999999995 0.2452747668197452 1 -0.005424704031565983 0 0.0006734561214445371
20 2 0 1.089 0.2452747668197452 1 -0.005489853630052897 0 0.0003510502936265223
21 2 0 1.21 -0.1222252331802549 1 -0.005072080423270237 0 0.0005519698552374106
22 2 0 1.21 0.0002747668197445319 1 -0.005833015289112077 0 0.0004270497885770335
23 2 0 1.21 0.1227747668197449 1 -0.005156848891514162 0 0.000339134800769486
24 2 0 0.1209999999999998 -0.2447252331802548 1 -0.005489853630052835 0 0.0003692354270147387
25 2 0 0.2419999999999996 -0.2447252331802548 1 -0.00542470403156593 0 0.0003848790883331253
26 2 0 0.3629999999999992 -0.2447252331802548 1 -0.004853505192508729 0 0.0003026190351677515
27 2 0 0.4839999999999987 -0.2447252331802548 1 -0.005657481503048576 0 0.0003829239715005632
28 2 0 0.6049999999999989 -0.2447252331802548 1 -0.005724037930822603 0 0.0004329885212852515
29 2 0 0.7259999999999991 -0.2447252331802548 1 -0.005550006967372281 0 0.0004639266721471117
30 2 0 0.8469999999999993 -0.2447252331802548 1 -0.005455266779046883 0 0.0004738663406037148
31 2 0 0.9679999999999995 -0.2447252331802548 1 -0.006064822209152462 0 0.0004556266491939753
32 2 0 1.089 -0.2447252331802548 1 -0.005400307916863657 0 0.0003462715821296141
33 2 25.8 0 -0.1222252331802549 1 0.005156848891514118 0 0.0003396749986838406
34 2 25.8 0 0.0002747668197445319 1 0.005833015289112075 0 0.0004314300686302919
35 2 25.8 0 0.1227747668197449 1 0.005072080423270289 0 0.0003347395649093273
36 2 25.8 0.1209999999999998 0.2452747668197452 1 0.005400307916863625 0 0.0003537790602220124
37 2 25.8 0.2419999999999996 0.2452747668197452 1 0.006064822209152431 0 0.0004299852162058639
38 2 25.8 0.3629999999999992 0.2452747668197452 1 0.005302662288577549 0 0.0003680505353300133
39 2 25.8 0.4839999999999987 0.2452747668197452 1 0.005809038937961952 0 0.0008198275878696482
40 2 25.8 0.6049999999999989 0.2452747668197452 1 0.005648598785355471 0 0.0004811375186928508
41 2 25.8 0.7259999999999991 0.2452747668197452 1 0.00434825669507386 0 0.0003467671358286738
42 2 25.8 0.8469999999999993 0.2452747668197452 1 0.004450459715402348 0 0.000335408067026456
43 2 25.8 0.9679999999999995 0.2452747668197452 1 0.005918641313709195 0 0.0004417885576796265
44 2 25.8 1.089 0.2452747668197452 1 0.005176598439444701 0 0.0003641623397634675
45 2 25.8 1.21 -0.1222252331802549 1 0.00508249420063702 0 0.0005448758864521361
46 2 25.8 1.21 0.0002747668197445319 1 0.005879384574788786 0 0.0004331712490672587
47 2 25.8 1.21 0.1227747668197449 1 0.005015196180926085 0 0.0003311373581690107
48 2 25.8 0.1209999999999998 -0.2447252331802548 1 0.005489853630052835 0 0.0003587233516713663
49 2 25.8 0.2419999999999996 -0.2447252331802548 1 0.00542470403156593 0 0.0006548365195839322
50 2 25.8 0.3629999999999992 -0.2447252331802548 1 0.004853505192508729 0 0.0003271934769471947
51 2 25.8 0.4839999999999987 -0.2447252331802548 1 0.005806599326049497 0 0.0004516319001281241
52 2 25.8 0.6049999999999989 -0.2447252331802548 1 0.005948650748637577 0 0.0004992418534363615
53 2 25.8 0.7259999999999991 -0.2447252331802548 1 0.005866156664666184 0 0.0007526038869058039
54 2 25.8 0.8469999999999993 -0.2447252331802548 1 0.005709053297877081 0 0.0004141892923032064
55 2 25.8 0.9679999999999995 -0.2447252331802548 1 0.006026798564761024 0 0.0004525206790699615
56 2 25.8 1.089 -0.2447252331802548 1 0.00533755306030616 0 0.0003763683920972168
57 2 0.122274881516588 0 -0.2447252331802548 1 0 0 0.0003343470378111052
58 2 0.244549763033176 0 -0.2447252331802548 1 0 0 0.0004006168614840806
59 2 0.3668246445497639 0 -0.2447252331802548 1 0 0 0.0004250449228216608
60 2 0.4890995260663519 0 -0.2447252331802548 1 0 0 0.0004842896291222844
61 2 0.6113744075829399 0 -0.2447252331802548 1 0 0 0.0004782240817556962
62 2 0.7336492890995279 0 -0.2447252331802548 1 0 0 0.0003955035466393326
63 2 0.8559241706161159 0 -0.2447252331802548 1 0 0 0.0003897964470538613
64 2 0.9781990521327039 0 -0.2447252331802548 1 0 0 0.0003681877707559672
65 2 1.100473933649292 0 -0.2447252331802548 1 0 0 0.0004076150906751879
66 2 1.22274881516588 0 -0.2447252331802548 1 0 0 0.0004775317142699342
67 2 1.345023696682468 0 -0.2447252331802548 1 0 0 0.0004767802435411817
68 2 1.467298578199056 0 -0.2447252331802548 1 0 0 0.0004057131934306752
69 2 1.589573459715644 0 -0.2447252331802548 1 0 0 0.0003519884480880203
70 2 1.711848341232232 0 -0.2447252331802548 1 0 0 0.0004468725085822572
71 2 1.83412322274882 0 -0.2447252331802548 1 0 0 0.000376150310366123
72 2 1.956398104265408 0 -0.2447252331802548 1 0 0 0.0003753739761509298
73 2 2.078672985781996 0 -0.2447252331802548 1 0 0 0.0004642165599332423
74 2 2.200947867298584 0 -0.2447252331802548 1 0 0 0.0004456305330775923
75 2 2.323222748815172 0 -0.2447252331802548 1 0 0 0.0004570405433604656
76 2 2.44549763033176 0 -0.2447252331802548 1 0 0 0.0004444162471795507
77 2 2.567772511848348 0 -0.2447252331802548 1 0 0 0.0004591973259512929
78 2 2.690047393364936 0 -0.2447252331802548 1 0 0 0.0003761596099957799
79 2 2.812322274881523 0 -0.2447252331802548 1 0 0 0.0003704545968128167
80 2 2.934597156398111 0 -0.2447252331802548 1 0 0 0.0008799638743411083
81 2 3.056872037914699 0 -0.2447252331802548 1 0 0 0.0004584309628341482
82 2 3.179146919431287 0 -0.2447252331802548 1 0 0 0.0004590008720148546
83 2 3.301421800947875 0 -0.2447252331802548 1 0 0 0.0004572078438937739
84 2 3.423696682464463 0 -0.2447252331802548 1 0 0 0.0004573046846972006
85 2 3.545971563981051 0 -0.2447252331802548 1 0 0 0.0004620165882662987
86 2 3.668246445497639 0 -0.2447252331802548 1 0 0 0.0004743749816035634
87 2 3.790521327014227 0 -0.2447252331802548 1 0 0 0.0004065543612812983
88 2 3.912796208530815 0 -0.2447252331802548 1 0 0 0.000394711798963737
89 2 4.035071090047403 0 -0.2447252331802548 1 0 0 0.0004513819078340826
90 2 4.157345971563991 0 -0.2447252331802548 1 0 0 0.0007822157624937677
91 2 4.279620853080578 0 -0.2447252331802548 1 0 0 0.0004593226086025055
92 2 4.401895734597167 0 -0.2447252331802548 1 0 0 0.0004589080771567472
93 2 4.524170616113755 0 -0.2447252331802548 1 0 0 0.0004580626343188745
94 2 4.646445497630343 0 -0.2447252331802548 1 0 0 0.0004588837628454714
95 2 4.768720379146932 0 -0.2447252331802548 1 0 0 0.0004583978088111855
96 2 4.890995260663519 0 -0.2447252331802548 1 0 0 0.0004591250763438173
97 2 5.013270142180107 0 -0.2447252331802548 1 0 0 0.0008411234848509463
98 2 5.135545023696696 0 -0.2447252331802548 1 0 0 0.0004551259158022505
99 2 5.257819905213283 0 -0.2447252331802548 1 0 0 0.000773516882488657
100 2 5.380094786729872 0 -0.2447252331802548 1 0 0 0.0003642608221294904
101 2 5.50236966824646 0 -0.2447252331802548 1 0 0 0.0003757998142998793
102 2 5.624644549763048 0 -0.2447252331802548 1 0 0 0.0003757503425421838
103 2 5.746919431279637 0 -0.2447252331802548 1 0 0 0.0003717436895608529
104 2 5.869194312796224 0 -0.2447252331802548 1 0 0 0.0004743461135963968
105 2 5.991469194312812 0 -0.2447252331802548 1 0 0 0.0004619780416559394
106 2 6.1137440758294 0 -0.2447252331802548 1 0 0 0.0004575639468339575
107 2 6.236018957345989 0 -0.2447252331802548 1 0 0 0.0004575308640142884
108 2 6.358293838862577 0 -0.2447252331802548 1 0 0 0.0004753647166472826
109 2 6.480568720379165 0 -0.2447252331802548 1 0 0 0.0004073357513639686
110 2 6.602843601895753 0 -0.2447252331802548 1 0 0 0.0003762659723738965
111 2 6.725118483412341 0 -0.2447252331802548 1 0 0 0.0003764246679358182
112 2 6.847393364928929 0 -0.2447252331802548 1 0 0 0.0004075954323049268
113 2 6.969668246445518 0 -0.2447252331802548 1 0 0 0.0004731155032239028
114 2 7.091943127962105 0 -0.2447252331802548 1 0 0 0.0004531385781234917
115 2 7.214218009478694 0 -0.2447252331802548 1 0 0 0.0003853633931154724
116 2 7.336492890995282 0 -0.2447252331802548 1 0 0 0.0004151916708783023
117 2 7.45876777251187 0 -0.2447252331802548 1 0 0 0.0003489472419643746
118 2 7.581042654028458 0 -0.2447252331802548 1 0 0 0.0003730390304950583
119 2 7.703317535545046 0 -0.2447252331802548 1 0 0 0.0003059115996126538
120 2 7.825592417061634 0 -0.2447252331802548 1 0 0 0.0005393060179842705
121 2 7.947867298578222 0 -0.2447252331802548 1 0 0 0.0003783766363205183
122 2 8.070142180094811 0 -0.2447252331802548 1 0 0 0.0003708200839951456
123 2 8.192417061611399 0 -0.2447252331802548 1 0 0 0.0005454983104511299
124 2 8.314691943127988 0 -0.2447252331802548 1 0 0 0.0007105473756164962
125 2 8.436966824644575 0 -0.2447252331802548 1 0 0 0.0003813874152715258
126 2 8.559241706161162 0 -0.2447252331802548 1 0 0 0.0003524451447414977
127 2 8.68151658767775 0 -0.2447252331802548 1 0 0 0.000463938490826137
128 2 8.803791469194339 0 -0.2447252331802548 1 0 0 0.0007511711479915837
129 2 8.926066350710927 0 -0.2447252331802548 1 0 0 0.000371021439980193
130 2 9.048341232227516 0 -0.2447252331802548 1 0 0 0.0003764246679357535
131 2 9.170616113744103 0 -0.2447252331802548 1 0 0 0.0003728022195913849
132 2 9.292890995260692 0 -0.2447252331802548 1 0 0 0.0004047145430073895
133 2 9.41516587677728 0 -0.2447252331802548 1 0 0 0.0003864274384399333
134 2 9.537440758293869 0 -0.2447252331802548 1 0 0 0.0005330504391828103
135 2 9.659715639810457 0 -0.2447252331802548 1 0 0 0.0003706608070801476
136 2 9.781990521327044 0 -0.2447252331802548 1 0 0 0.0004183213054340498
137 2 9.904265402843633 0 -0.2447252331802548 1 0 0 0.0004433337369076463
138 2 10.02654028436022 0 -0.2447252331802548 1 0 0 0.0003705568032128365
139 2 10.14881516587681 0 -0.2447252331802548 1 0 0 0.0005128429555535676
140 2 10.2710900473934 0 -0.2447252331802548 1 0 0 0.0003514034294467853
141 2 10.39336492890998 0 -0.2447252331802548 1 0 0 0.0004195382652186215
142 2 10.51563981042657 0 -0.2447252331802548 1 0 0 0.0004739203128484187
143 2 10.63791469194316 0 -0.2447252331802548 1 0 0 0.0004798058328900608
144 2 10.76018957345975 0 -0.2447252331802548 1 0 0 0.0004376393167410818
145 2 10.88246445497634 0 -0.2447252331802548 1 0 0 0.0004348578643237197
146 2 11.00473933649292 0 -0.2447252331802548 1 0 0 0.0004445028822141749
147 2 11.12701421800951 0 -0.2447252331802548 1 0 0 0.0004508727965808492
148 2 11.2492890995261 0 -0.2447252331802548 1 0 0 0.0006856610154722529
149 2 11.37156398104269 0 -0.2447252331802548 1 0 0 0.0004325738220436288
150 2 11.49383886255928 0 -0.2447252331802548 1 0 0 0.0006849351072081963
151 2 11.61611374407586 0 -0.2447252331802548 1 0 0 0.0003999097491952166
152 2 11.73838862559245 0 -0.2447252331802548 1 0 0 0.000729067766942316
153 2 11.86066350710904 0 -0.2447252331802548 1 0 0 0.000858180831831588
154 2 11.98293838862563 0 -0.2447252331802548 1 0 0 0.0004757723191563444
155 2 12.10521327014222 0 -0.2447252331802548 1 0 0 0.000788383121861572
156 2 12.22748815165881 0 -0.2447252331802548 1 0 0 0.0003613050368508411
157 2 12.34976303317539 0 -0.2447252331802548 1 0 0 0.000394493437930332
158 2 12.47203791469198 0 -0.2447252331802548 1 0 0 0.0003515900557556226
159 2 12.59431279620857 0 -0.2447252331802548 1 0 0 0.0002655966990923888
160 2 12.71658767772516 0 -0.2447252331802548 1 0 0 0.0004992453882238575
161 2 12.83886255924175 0 -0.2447252331802548 1 0 0 0.0003872948007353215
162 2 12.96113744075833 0 -0.2447252331802548 1 0 0 0.0004358056427740424
163 2 13.08341232227492 0 -0.2447252331802548 1 0 0 0.0003941486856810558
164 2 13.20568720379151 0 -0.2447252331802548 1 0 0 0.0002883435676869448
165 2 13.3279620853081 0 -0.2447252331802548 1 0 0 0.0003493458508095344
166 2 13.45023696682469 0 -0.2447252331802548 1 0 0 0.0003306078776935222
167 2 13.57251184834127 0 -0.2447252331802548 1 0 0 0.0003507177060123212
168 2 13.69478672985786 0 -0.2447252331802548 1 0 0 0.0004967042817469758
169 2 13.81706161137445 0 -0.2447252331802548 1 0 0 0.0003827901780731326
170 2 13.93933649289104 0 -0.2447252331802548 1 0 0 0.0003529721578100965
171 2 14.06161137440763 0 -0.2447252331802548 1 0 0 0.0004989803952610446
172 2 14.18388625592422 0 -0.2447252331802548 1 0 0 0.0003800040785115642
173 2 14.3061611374408 0 -0.2447252331802548 1 0 0 0.0003520126486567731
174 2 14.42843601895739 0 -0.2447252331802548 1 0 0 0.0006849353160254157
175 2 14.55071090047398 0 -0.2447252331802548 1 0 0 0.0003819723209438245
176 2 14.67298578199057 0 -0.2447252331802548 1 0 0 0.0003644369076857006
177 2 14.79526066350716 0 -0.2447252331802548 1 0 0 0.0006012212055292727
178 2 14.91753554502374 0 -0.2447252331802548 1 0 0 0.0003291583814192238
179 2 15.03981042654033 0 -0.2447252331802548 1 0 0 0.000664621377139307
180 2 15.16208530805692 0 -0.2447252331802548 1 0 0 0.0003829845411291863
181 2 15.28436018957351 0 -0.2447252331802548 1 0 0 0.0008054610158135856
182 2 15.4066350710901 0 -0.2447252331802548 1 0 0 0.0004610746817067975
183 2 15.52890995260669 0 -0.2447252331802548 1 0 0 0.0003993138823254734
184 2 15.65118483412327 0 -0.2447252331802548 1 0 0 0.0003810965521826877
185 2 15.77345971563986 0 -0.2447252331802548 1 0 0 0.0007438890671301143
186 2 15.89573459715645 0 -0.2447252331802548 1 0 0 0.0003402256577612572
187 2 16.01800947867304 0 -0.2447252331802548 1 0 0 0.0004865401746273463
188 2 16.14028436018963 0 -0.2447252331802548 1 0 0 0.0003646624854009667
189 2 16.26255924170621 0 -0.2447252331802548 1 0 0 0.0006072300634387338
190 2 16.3848341232228 0 -0.2447252331802548 1 0 0 0.000357917279640644
191 2 16.50710900473939 0 -0.2447252331802548 1 0 0 0.0003559815538767306
192 2 16.62938388625597 0 -0.2447252331802548 1 0 0 0.0002487662326235025
193 2 16.75165876777256 0 -0.2447252331802548 1 0 0 0.0004824758120488362
194 2 16.87393364928915 0 -0.2447252331802548 1 0 0 0.000399552749548684
195 2 16.99620853080573 0 -0.2447252331802548 1 0 0 0.0003404168219709333
196 2 17.11848341232232 0 -0.2447252331802548 1 0 0 0.0004688921440717242
197 2 17.24075829383891 0 -0.2447252331802548 1 0 0 0.0003775549704421845
198 2 17.36303317535549 0 -0.2447252331802548 1 0 0 0.0003046470681926974
199 2 17.48530805687208 0 -0.2447252331802548 1 0 0 0.0003877540991866995
200 2 17.60758293838867 0 -0.2447252331802548 1 0 0 0.0003789567716636703
201 2 17.72985781990526 0 -0.2447252331802548 1 0 0 0.0004717756616549472
202 2 17.85213270142184 0 -0.2447252331802548 1 0 0 0.0006339690957892404
203 2 17.97440758293843 0 -0.2447252331802548 1 0 0 0.0003770050722603873
204 2 18.09668246445502 0 -0.2447252331802548 1 0 0 0.0004411170068812454
205 2 18.2189573459716 0 -0.2447252331802548 1 0 0 0.0004253001886957679
206 2 18.34123222748819 0 -0.2447252331802548 1 0 0 0.0004372431103711077
207 2 18.46350710900478 0 -0.2447252331802548 1 0 0 0.0004716211036909354
208 2 18.58578199052137 0 -0.2447252331802548 1 0 0 0.000373775013649083
209 2 18.70805687203795 0 -0.2447252331802548 1 0 0 0.0003223560050862375
210 2 18.83033175355454 0 -0.2447252331802548 1 0 0 0.0004814108722346836
211 2 18.95260663507113 0 -0.2447252331802548 1 0 0 0.0004558672195642724
212 2 19.07488151658772 0 -0.2447252331802548 1 0 0 0.0003468609526052026
213 2 19.1971563981043 0 -0.2447252331802548 1 0 0 0.0004029181773025503
214 2 19.31943127962089 0 -0.2447252331802548 1 0 0 0.0004740070170294456
215 2 19.44170616113747 0 -0.2447252331802548 1 0 0 0.0004593226083939967
216 2 19.56398104265406 0 -0.2447252331802548 1 0 0 0.0004579409760531901
217 2 19.68625592417065 0 -0.2447252331802548 1 0 0 0.0004441246526431366
218 2 19.80853080568724 0 -0.2447252331802548 1 0 0 0.0004223777365415331
219 2 19.93080568720382 0 -0.2447252331802548 1 0 0 0.0004469530024492517
220 2 20.05308056872041 0 -0.2447252331802548 1 0 0 0.0007336696028641034
221 2 20.175355450237 0 -0.2447252331802548 1 0 0 0.0008370393254007029
222 2 20.29763033175358 0 -0.2447252331802548 1 0 0 0.0004509778653035352
223 2 20.41990521327017 0 -0.2447252331802548 1 0 0 0.0004479875469819122
224 2 20.54218009478676 0 -0.2447252331802548 1 0 0 0.0004477116042745654
225 2 20.66445497630334 0 -0.2447252331802548 1 0 0 0.0005035611307132796
226 2 20.78672985781993 0 -0.2447252331802548 1 0 0 0.0005411835341534753
227 2 20.90900473933652 0 -0.2447252331802548 1 0 0 0.0004740895541166545
228 2 21.03127962085311 0 -0.2447252331802548 1 0 0 0.0004600967512531983
229 2 21.15355450236969 0 -0.2447252331802548 1 0 0 0.0003651819726388141
230 2 21.27582938388628 0 -0.2447252331802548 1 0 0 0.0006065562023006246
231 2 21.39810426540287 0 -0.2447252331802548 1 0 0 0.0004556621080389982
232 2 21.52037914691946 0 -0.2447252331802548 1 0 0 0.0004768630884650854
233 2 21.64265402843604 0 -0.2447252331802548 1 0 0 0.0003772922374514383
234 2 21.76492890995263 0 -0.2447252331802548 1 0 0 0.000404730225370989
235 2 21.88720379146922 0 -0.2447252331802548 1 0 0 0.0004691254640606984
236 2 22.0094786729858 0 -0.2447252331802548 1 0 0 0.0008044921992881575
237 2 22.13175355450239 0 -0.2447252331802548 1 0 0 0.0004215546104759669
238 2 22.25402843601898 0 -0.2447252331802548 1 0 0 0.0004589182202022179
239 2 22.37630331753556 0 -0.2447252331802548 1 0 0 0.0004653697576724006
240 2 22.49857819905215 0 -0.2447252331802548 1 0 0 0.0004329582095123147
241 2 22.62085308056874 0 -0.2447252331802548 1 0 0 0.0003506346534604282
242 2 22.74312796208532 0 -0.2447252331802548 1 0 0 0.0003676819445329784
243 2 22.86540284360191 0 -0.2447252331802548 1 0 0 0.0003816136965763262
244 2 22.9876777251185 0 -0.2447252331802548 1 0 0 0.0004431860014920825
245 2 23.10995260663509 0 -0.2447252331802548 1 0 0 0.000498851896327088
246 2 23.23222748815167 0 -0.2447252331802548 1 0 0 0.0003902580700696464
247 2 23.35450236966826 0 -0.2447252331802548 1 0 0 0.0004062109785665752
248 2 23.47677725118485 0 -0.2447252331802548 1 0 0 0.0007649646162965371
249 2 23.59905213270143 0 -0.2447252331802548 1 0 0 0.0004165065893008572
250 2 23.72132701421802 0 -0.2447252331802548 1 0 0 0.0003932792761213704
251 2 23.84360189573461 0 -0.2447252331802548 1 0 0 0.000460233168162065
252 2 23.9658767772512 0 -0.2447252331802548 1 0 0 0.0003386424468651129
253 2 24.08815165876779 0 -0.2447252331802548 1 0 0 0.0003153168022035873
254 2 24.21042654028437 0 -0.2447252331802548 1 0 0 0.0004493254712028058
255 2 24.33270142180096 0 -0.2447252331802548 1 0 0 0.0003443546485273948
256 2 24.45497630331754 0 -0.2447252331802548 1 0 0 0.0003632199195795242
257 2 24.57725118483413 0 -0.2447252331802548 1 0 0 0.0004774869691680449
258 2 24.69952606635072 0 -0.2447252331802548 1 0 0 0.000411101105500048
259 2 24.82180094786731 0 -0.2447252331802548 1 0 0 0.0004146134161008826
260 2 24.94407582938389 0 -0.2447252331802548 1 0 0 0.000349306518669153
261 2 25.06635071090048 0 -0.2447252331802548 1 0 0 0.0006508918876565147
262 2 25.18862559241707 0 -0.2447252331802548 1 0 0 0.0003528487818898691
263 2 25.31090047393365 0 -0.2447252331802548 1 0 0 0.0003292743400409059
264 2 25.43317535545024 0 -0.2447252331802548 1 0 0 0.0004101260251884848
265 2 25.55545023696683 0 -0.2447252331802548 1 0 0 0.0004815226838609111
266 2 25.67772511848341 0 -0.2447252331802548 1 0 0 0.000343337454791358
267 2 0.122274881516588 0 0.2452747668197452 1 0 0 0.00033347193560442
268 2 0.244549763033176 0 0.2452747668197452 1 0 0 0.0004415100158615862
269 2 0.3668246445497639 0 0.2452747668197452 1 0 0 0.0004217427002682857
270 2 0.4890995260663519 0 0.2452747668197452 1 0 0 0.000437574603130497
271 2 0.6113744075829399 0 0.2452747668197452 1 0 0 0.0004593226083947205
272 2 0.7336492890995279 0 0.2452747668197452 1 0 0 0.0004511656313685133
273 2 0.8559241706161159 0 0.2452747668197452 1 0 0 0.0004361600198970801
274 2 0.9781990521327039 0 0.2452747668197452 1 0 0 0.0004492708119405232
275 2 1.100473933649292 0 0.2452747668197452 1 0 0 0.0004593472405627567
276 2 1.22274881516588 0 0.2452747668197452 1 0 0 0.0004593245605913721
277 2 1.345023696682468 0 0.2452747668197452 1 0 0 0.000444724499316268
278 2 1.467298578199056 0 0.2452747668197452 1 0 0 0.0004480136517666419
279 2 1.589573459715644 0 0.2452747668197452 1 0 0 0.0004587483365518361
280 2 1.711848341232232 0 0.2452747668197452 1 0 0 0.0004569961564509473
281 2 1.83412322274882 0 0.2452747668197452 1 0 0 0.0004574029984642507
282 2 1.956398104265408 0 0.2452747668197452 1 0 0 0.0004593237249973631
283 2 2.078672985781996 0 0.2452747668197452 1 0 0 0.0004538546530026526
284 2 2.200947867298584 0 0.2452747668197452 1 0 0 0.0004474442102533752
285 2 2.323222748815172 0 0.2452747668197452 1 0 0 0.0003947117571899451
286 2 2.44549763033176 0 0.2452747668197452 1 0 0 0.0004075954323050227
287 2 2.567772511848348 0 0.2452747668197452 1 0 0 0.0004743461722023425
288 2 2.690047393364936 0 0.2452747668197452 1 0 0 0.0004616053683844376
289 2 2.812322274881523 0 0.2452747668197452 1 0 0 0.0004425743835049314
290 2 2.934597156398111 0 0.2452747668197452 1 0 0 0.0004208189426046441
291 2 3.056872037914699 0 0.2452747668197452 1 0 0 0.0004514705945346176
292 2 3.179146919431287 0 0.2452747668197452 1 0 0 0.0003758625017396906
293 2 3.301421800947875 0 0.2452747668197452 1 0 0 0.0003764246892839352
294 2 3.423696682464463 0 0.2452747668197452 1 0 0 0.0007000594490393179
295 2 3.545971563981051 0 0.2452747668197452 1 0 0 0.0003639159057590573
296 2 3.668246445497639 0 0.2452747668197452 1 0 0 0.0004497203604010259
297 2 3.790521327014227 0 0.2452747668197452 1 0 0 0.0004551979649770756
298 2 3.912796208530815 0 0.2452747668197452 1 0 0 0.0004593226076170356
299 2 4.035071090047403 0 0.2452747668197452 1 0 0 0.0004478091460567831
300 2 4.157345971563991 0 0.2452747668197452 1 0 0 0.0004512703357695947
301 2 4.279620853080578 0 0.2452747668197452 1 0 0 0.0003639159024070889
302 2 4.401895734597167 0 0.2452747668197452 1 0 0 0.0003702672403722416
303 2 4.524170616113755 0 0.2452747668197452 1 0 0 0.0004762328299150893
304 2 4.646445497630343 0 0.2452747668197452 1 0 0 0.0007516491273739257
305 2 4.768720379146932 0 0.2452747668197452 1 0 0 0.0003710449406451628
306 2 4.890995260663519 0 0.2452747668197452 1 0 0 0.0004093106667679498
307 2 5.013270142180107 0 0.2452747668197452 1 0 0 0.0007090915303166676
308 2 5.135545023696696 0 0.2452747668197452 1 0 0 0.0004077192086210865
309 2 5.257819905213283 0 0.2452747668197452 1 0 0 0.0004758236567096614
310 2 5.380094786729872 0 0.2452747668197452 1 0 0 0.0004578514858067343
311 2 5.50236966824646 0 0.2452747668197452 1 0 0 0.0004572867026034573
312 2 5.624644549763048 0 0.2452747668197452 1 0 0 0.0004585465483212029
313 2 5.746919431279637 0 0.2452747668197452 1 0 0 0.000454936412047973
314 2 5.869194312796224 0 0.2452747668197452 1 0 0 0.0004495045690377641
315 2 5.991469194312812 0 0.2452747668197452 1 0 0 0.0004329461002310183
316 2 6.1137440758294 0 0.2452747668197452 1 0 0 0.0003383717883684077
317 2 6.236018957345989 0 0.2452747668197452 1 0 0 0.0004020740199200522
318 2 6.358293838862577 0 0.2452747668197452 1 0 0 0.0004593231524175484
319 2 6.480568720379165 0 0.2452747668197452 1 0 0 0.0004440256960071596
320 2 6.602843601895753 0 0.2452747668197452 1 0 0 0.0004589620273125377
321 2 6.725118483412341 0 0.2452747668197452 1 0 0 0.0004593226083947778
322 2 6.847393364928929 0 0.2452747668197452 1 0 0 0.0004593226083945287
323 2 6.969668246445518 0 0.2452747668197452 1 0 0 0.0004593226083945642
324 2 7.091943127962105 0 0.2452747668197452 1 0 0 0.0006901282417413938
325 2 7.214218009478694 0 0.2452747668197452 1 0 0 0.0004565852332469905
326 2 7.336492890995282 0 0.2452747668197452 1 0 0 0.0004399330881615896
327 2 7.45876777251187 0 0.2452747668197452 1 0 0 0.0004350541795270682
328 2 7.581042654028458 0 0.2452747668197452 1 0 0 0.0004565415579022366
329 2 7.703317535545046 0 0.2452747668197452 1 0 0 0.0003762030490507093
330 2 7.825592417061634 0 0.2452747668197452 1 0 0 0.0005637668704409735
331 2 7.947867298578222 0 0.2452747668197452 1 0 0 0.000303864200897194
332 2 8.070142180094811 0 0.2452747668197452 1 0 0 0.0003639536327605412
333 2 8.192417061611399 0 0.2452747668197452 1 0 0 0.0004377914477856401
334 2 8.314691943127988 0 0.2452747668197452 1 0 0 0.0004393504716794185
335 2 8.436966824644575 0 0.2452747668197452 1 0 0 0.0004558375921150769
336 2 8.559241706161162 0 0.2452747668197452 1 0 0 0.0003739125518505468
337 2 8.68151658767775 0 0.2452747668197452 1 0 0 0.0005373624803296586
338 2 8.803791469194339 0 0.2452747668197452 1 0 0 0.0003614397313320963
339 2 8.926066350710927 0 0.2452747668197452 1 0 0 0.0004167429357968103
340 2 9.048341232227516 0 0.2452747668197452 1 0 0 0.0006978497715948415
341 2 9.170616113744103 0 0.2452747668197452 1 0 0 0.0004509093650152902
342 2 9.292890995260692 0 0.2452747668197452 1 0 0 0.000444611403531142
343 2 9.41516587677728 0 0.2452747668197452 1 0 0 0.0003619855684071607
344 2 9.537440758293869 0 0.2452747668197452 1 0 0 0.0004319521809441637
345 2 9.659715639810457 0 0.2452747668197452 1 0 0 0.0002834883312836607
346 2 9.781990521327044 0 0.2452747668197452 1 0 0 0.0004105304281816091
347 2 9.904265402843633 0 0.2452747668197452 1 0 0 0.0003520918861790772
348 2 10.02654028436022 0 0.2452747668197452 1 0 0 0.000427819822270212
349 2 10.14881516587681 0 0.2452747668197452 1 0 0 0.0003875050853853655
350 2 10.2710900473934 0 0.2452747668197452 1 0 0 0.0004454552195647752
351 2 10.39336492890998 0 0.2452747668197452 1 0 0 0.0004856011296260873
352 2 10.51563981042657 0 0.2452747668197452 1 0 0 0.0004481833023744482
353 2 10.63791469194316 0 0.2452747668197452 1 0 0 0.0003287745729862131
354 2 10.76018957345975 0 0.2452747668197452 1 0 0 0.000346775568438393
355 2 10.88246445497634 0 0.2452747668197452 1 0 0 0.0003644012689985498
356 2 11.00473933649292 0 0.2452747668197452 1 0 0 0.0004075954323051115
357 2 11.12701421800951 0 0.2452747668197452 1 0 0 0.0004752552079602829
358 2 11.2492890995261 0 0.2452747668197452 1 0 0 0.0004593226083947305
359 2 11.37156398104269 0 0.2452747668197452 1 0 0 0.0006991636483992518
360 2 11.49383886255928 0 0.2452747668197452 1 0 0 0.0003675376542139839
361 2 11.61611374407586 0 0.2452747668197452 1 0 0 0.000509817171410819
362 2 11.73838862559245 0 0.2452747668197452 1 0 0 0.0003859651605238601
363 2 11.86066350710904 0 0.2452747668197452 1 0 0 0.0003264603818933601
364 2 11.98293838862563 0 0.2452747668197452 1 0 0 0.0004250090696626217
365 2 12.10521327014222 0 0.2452747668197452 1 0 0 0.0003772298870110063
366 2 12.22748815165881 0 0.2452747668197452 1 0 0 0.0003521052790979827
367 2 12.34976303317539 0 0.2452747668197452 1 0 0 0.0007800055761880146
368 2 12.47203791469198 0 0.2452747668197452 1 0 0 0.0003837194088552685
369 2 12.59431279620857 0 0.2452747668197452 1 0 0 0.0003583413916858003
370 2 12.71658767772516 0 0.2452747668197452 1 0 0 0.0005088287981474898
371 2 12.83886255924175 0 0.2452747668197452 1 0 0 0.0003723305477641008
372 2 12.96113744075833 0 0.2452747668197452 1 0 0 0.000415433720774017
373 2 13.08341232227492 0 0.2452747668197452 1 0 0 0.0004385680707946579
374 2 13.20568720379151 0 0.2452747668197452 1 0 0 0.0003558931511984437
375 2 13.3279620853081 0 0.2452747668197452 1 0 0 0.0007516802180659676
376 2 13.45023696682469 0 0.2452747668197452 1 0 0 0.000371564483907106
377 2 13.57251184834127 0 0.2452747668197452 1 0 0 0.0004332041216404353
378 2 13.69478672985786 0 0.2452747668197452 1 0 0 0.0004339114606864672
379 2 13.81706161137445 0 0.2452747668197452 1 0 0 0.0002742229949788092
380 2 13.93933649289104 0 0.2452747668197452 1 0 0 0.0004257989950452363
381 2 14.06161137440763 0 0.2452747668197452 1 0 0 0.0003494741367375889
382 2 14.18388625592422 0 0.2452747668197452 1 0 0 0.0003277412239504015
383 2 14.3061611374408 0 0.2452747668197452 1 0 0 0.0003636929945306936
384 2 14.42843601895739 0 0.2452747668197452 1 0 0 0.000698700943966466
385 2 14.55071090047398 0 0.2452747668197452 1 0 0 0.0003854910557507647
386 2 14.67298578199057 0 0.2452747668197452 1 0 0 0.0003464790202659216
387 2 14.79526066350716 0 0.2452747668197452 1 0 0 0.0006741202892787259
388 2 14.91753554502374 0 0.2452747668197452 1 0 0 0.0003676110764003788
389 2 15.03981042654033 0 0.2452747668197452 1 0 0 0.0004161677989528728
390 2 15.16208530805692 0 0.2452747668197452 1 0 0 0.0004443854117013981
391 2 15.28436018957351 0 0.2452747668197452 1 0 0 0.0004404672459447997
392 2 15.4066350710901 0 0.2452747668197452 1 0 0 0.0004231810268059762
393 2 15.52890995260669 0 0.2452747668197452 1 0 0 0.0003400227796753975
394 2 15.65118483412327 0 0.2452747668197452 1 0 0 0.0007734455546956728