LAMMPS data file for tetmsm

653 atoms
3307 bonds
2113 impropers

2 atom types
1 bond types
1 improper types

-0.2 0.6000000000000001 xlo xhi
-0.2 0.6000000000000001 ylo yhi
-1.2 3.5999999999999996 zlo zhi

Masses

1 1.0
2 1.0

Atoms  # hybrid full sphere

1 2 0 0 2.4 1 0 0 0.08454461184824211
2 2 0 0 0 1 0 0 0.08144464701324336
3 2 0 0.4 2.4 1 0 0 0.0969388196707085
4 2 0 0.4 0 1 0 0 0.09693881967070461
5 2 0.4 0 2.4 1 0 0 0.09727467262838595
6 2 0.4 0 0 1 0 0 0.09967936855888614
7 2 0.4 0.4 2.4 1 0 0 0.09727500922878135
8 2 0.4 0.4 0 1 0 0 0.09967936855888589
9 2 0 0 0.1000000000000001 1 0 0 0.07913463129291447
10 2 0 0 0.2000000000000001 1 0 0 0.1091530668956642
11 2 0 0 0.3000000000000001 1 0 0 0.09781802578698126
12 2 0 0 0.4000000000000001 1 0 0 0.1013480875445002
13 2 0 0 0.5000000000000002 1 0 0 0.1020659602265756
14 2 0 0 0.6000000000000004 1 0 0 0.1020659602265759
15 2 0 0 0.7000000000000007 1 0 0 0.1112395761359457
16 2 0 0 0.8000000000000009 1 0 0 0.1154515796113122
17 2 0 0 0.900000000000001 1 0 0 0.09213977714904584
18 2 0 0 1.000000000000001 1 0 0 0.09234498734744753
19 2 0 0 1.100000000000001 1 0 0 0.1000505211772062
20 2 0 0 1.200000000000001 1 0 0 0.08442444847827642
21 2 0 0 1.300000000000002 1 0 0 0.09976036160687665
22 2 0 0 1.400000000000002 1 0 0 0.1201769881576386
23 2 0 0 1.500000000000002 1 0 0 0.1204068255519514
24 2 0 0 1.600000000000003 1 0 0 0.1250000000000005
25 2 0 0 1.700000000000002 1 0 0 0.1269808328012775
26 2 0 0 1.800000000000002 1 0 0 0.09990014932745758
27 2 0 0 1.900000000000003 1 0 0 0.1089461721586024
28 2 0 0 2.000000000000003 1 0 0 0.1048698240912409
29 2 0 0 2.100000000000002 1 0 0 0.100614453721598
30 2 0 0 2.200000000000001 1 0 0 0.1199697792570901
31 2 0 0 2.3 1 0 0 0.08493419453723017
32 2 0 0.1000000000000002 2.4 1 0 0 0.07044356793463752
33 2 0 0.2000000000000001 2.4 1 0 0 0.116433716181831
34 2 0 0.3000000000000002 2.4 1 0 0 0.07766614241380881
35 2 0 0.4 0.1000000000000001 1 0 0 0.08493419453722659
36 2 0 0.4 0.2000000000000001 1 0 0 0.1179059879352151
37 2 0 0.4 0.3000000000000001 1 0 0 0.0992521433693512
38 2 0 0.4 0.4000000000000001 1 0 0 0.07930950535093498
39 2 0 0.4 0.5000000000000002 1 0 0 0.09747915227189057
40 2 0 0.4 0.6000000000000004 1 0 0 0.08182488777643564
41 2 0 0.4 0.7000000000000007 1 0 0 0.08182488777643551
42 2 0 0.4 0.8000000000000009 1 0 0 0.1112030077792241
43 2 0 0.4 0.900000000000001 1 0 0 0.09867934401943074
44 2 0 0.4 1.000000000000001 1 0 0 0.1014099995453216
45 2 0 0.4 1.100000000000001 1 0 0 0.1217011261781321
46 2 0 0.4 1.200000000000001 1 0 0 0.09635067548117424
47 2 0 0.4 1.300000000000002 1 0 0 0.09701850227171813
48 2 0 0.4 1.400000000000002 1 0 0 0.0987669438459309
49 2 0 0.4 1.500000000000002 1 0 0 0.07930950535093603
50 2 0 0.4 1.600000000000003 1 0 0 0.1074269343924491
51 2 0 0.4 1.700000000000002 1 0 0 0.2078361778191175
52 2 0 0.4 1.800000000000002 1 0 0 0.1092162622857143
53 2 0 0.4 1.900000000000003 1 0 0 0.1112395761359461
54 2 0 0.4 2.000000000000003 1 0 0 0.1249600940624915
55 2 0 0.4 2.100000000000002 1 0 0 0.1198305948001968
56 2 0 0.4 2.200000000000001 1 0 0 0.1213859968669227
57 2 0 0.4 2.3 1 0 0 0.09141375449659726
58 2 0 0.1000000000000002 0 1 0 0 0.08184059827232054
59 2 0 0.2000000000000001 0 1 0 0 0.1382333510146499
60 2 0 0.3000000000000002 0 1 0 0 0.07495198739770652
61 2 0.4 0 0.1000000000000001 1 0 0 0.0849341945372266
62 2 0.4 0 0.2000000000000001 1 0 0 0.1198181624536885
63 2 0.4 0 0.3000000000000001 1 0 0 0.1017948829658944
64 2 0.4 0 0.4000000000000001 1 0 0 0.1016957085686084
65 2 0.4 0 0.5000000000000002 1 0 0 0.1016956709903103
66 2 0.4 0 0.6000000000000004 1 0 0 0.1020659602265757
67 2 0.4 0 0.7000000000000007 1 0 0 0.1257020005792283
68 2 0.4 0 0.8000000000000009 1 0 0 0.1242566627228842
69 2 0.4 0 0.900000000000001 1 0 0 0.1100830535666804
70 2 0.4 0 1.000000000000001 1 0 0 0.101385508445937
71 2 0.4 0 1.100000000000001 1 0 0 0.1013855084459371
72 2 0.4 0 1.200000000000001 1 0 0 0.101664014154305
73 2 0.4 0 1.300000000000002 1 0 0 0.1260841665104098
74 2 0.4 0 1.400000000000002 1 0 0 0.126197937859366
75 2 0.4 0 1.500000000000002 1 0 0 0.100225717086808
76 2 0.4 0 1.600000000000003 1 0 0 0.1112395761359459
77 2 0.4 0 1.700000000000002 1 0 0 0.1042295670286111
78 2 0.4 0 1.800000000000002 1 0 0 0.08102012205200829
79 2 0.4 0 1.900000000000003 1 0 0 0.1014192289091891
80 2 0.4 0 2.000000000000003 1 0 0 0.1009345715156824
81 2 0.4 0 2.100000000000002 1 0 0 0.08102012205200843
82 2 0.4 0 2.200000000000001 1 0 0 0.1020242934592289
83 2 0.4 0 2.3 1 0 0 0.08377501815507515
84 2 0.4 0.1000000000000002 2.4 1 0 0 0.08602330633276736
85 2 0.4 0.2000000000000001 2.4 1 0 0 0.1204060480987732
86 2 0.4 0.3000000000000002 2.4 1 0 0 0.09530605960143242
87 2 0.4 0.4 0.1000000000000001 1 0 0 0.09141375449659539
88 2 0.4 0.4 0.2000000000000001 1 0 0 0.1208099709690743
89 2 0.4 0.4 0.3000000000000001 1 0 0 0.1237280258833156
90 2 0.4 0.4 0.4000000000000001 1 0 0 0.2202848485544329
91 2 0.4 0.4 0.5000000000000002 1 0 0 0.1240074158119533
92 2 0.4 0.4 0.6000000000000004 1 0 0 0.2288398965595767
93 2 0.4 0.4 0.7000000000000007 1 0 0 0.1213486113230948
94 2 0.4 0.4 0.8000000000000009 1 0 0 0.116560418018741
95 2 0.4 0.4 0.900000000000001 1 0 0 0.1219127903204183
96 2 0.4 0.4 1.000000000000001 1 0 0 0.1237985786493532
97 2 0.4 0.4 1.100000000000001 1 0 0 0.2182904222480536
98 2 0.4 0.4 1.200000000000001 1 0 0 0.1250000000000013
99 2 0.4 0.4 1.300000000000002 1 0 0 0.122801758004748
100 2 0.4 0.4 1.400000000000002 1 0 0 0.1211016441456346
101 2 0.4 0.4 1.500000000000002 1 0 0 0.1064298693135968
102 2 0.4 0.4 1.600000000000003 1 0 0 0.1041915223697068
103 2 0.4 0.4 1.700000000000002 1 0 0 0.1153620470863565
104 2 0.4 0.4 1.800000000000002 1 0 0 0.1200588801750208
105 2 0.4 0.4 1.900000000000003 1 0 0 0.1257020005792284
106 2 0.4 0.4 2.000000000000003 1 0 0 0.1289379378615225
107 2 0.4 0.4 2.100000000000002 1 0 0 0.1096975069047746
108 2 0.4 0.4 2.200000000000001 1 0 0 0.1032729572807636
109 2 0.4 0.4 2.3 1 0 0 0.09022919182966092
110 2 0.4 0.1000000000000002 0 1 0 0 0.08602330633276845
111 2 0.4 0.2000000000000001 0 1 0 0 0.1204066806164446
112 2 0.4 0.3000000000000002 0 1 0 0 0.09530547319474723
113 2 0.1000000000000002 0 0 1 0 0 0.08514782636792623
114 2 0.2000000000000001 0 0 1 0 0 0.1236545989321244
115 2 0.3000000000000002 0 0 1 0 0 0.09476822149684525
116 2 0.1000000000000002 0 2.4 1 0 0 0.09511331104886248
117 2 0.2000000000000001 0 2.4 1 0 0 0.1250408989830992
118 2 0.3000000000000002 0 2.4 1 0 0 0.08446729207470174
119 2 0.1000000000000002 0.4 0 1 0 0 0.08327325521845634
120 2 0.2000000000000001 0.4 0 1 0 0 0.1224899446877572
121 2 0.3000000000000002 0.4 0 1 0 0 0.1034150674552793
122 2 0.1000000000000002 0.4 2.4 1 0 0 0.09364581210214939
123 2 0.2000000000000001 0.4 2.4 1 0 0 0.128209619080673
124 2 0.3000000000000002 0.4 2.4 1 0 0 0.09150325649797847
125 2 0 0.3133974596215572 2.050000000000002 1 0 0 0.5371204463500356
126 2 0 0.3154764997775145 1.638968707941833 1 0 0 0.5224120955171243
127 2 0 0.3133974596215557 1.850000000000003 1 0 0 0.6232163008987071
128 2 0 0.08192816193896926 0.2509143223013344 1 0 0 0.5117199214100708
129 2 0 0.08660254037844396 0.4500000000000002 1 0 0 0.6574647379622097
130 2 0 0.08838143262415983 0.8603972793704031 1 0 0 0.3890893783118339
131 2 0 0.08660254037844393 1.050000000000001 1 0 0 0.6745383129476386
132 2 0 0.3133974596215562 1.250000000000002 1 0 0 0.4514117411398572
133 2 0 0.3154764997775143 1.46103129205817 1 0 0 0.3917671555293909
134 2 0 0.08660254037844403 0.6500000000000007 1 0 0 0.5320278708319306
135 2 0 0.08660254037844317 2.149999999999999 1 0 0 0.6134508425426334
136 2 0 0.08660254037844355 1.950000000000003 1 0 0 0.5271194034455864
137 2 0 0.08660254037844423 1.550000000000002 1 0 0 0.5628271142267831
138 2 0 0.08771166171098796 1.757879494327266 1 0 0 0.5175981771679115
139 2 0 0.3154764997775142 0.3610312920581689 1 0 0 0.547046429223878
140 2 0 0.083983386609182 1.354536507401199 1 0 0 0.58678258365216
141 2 0 0.3133974596215557 0.9500000000000006 1 0 0 0.428397191741647
142 2 0 0.313397459621556 0.5500000000000003 1 0 0 0.5430663427375521
143 2 0 0.313397459621556 0.7500000000000008 1 0 0 0.5371805208469551
144 2 0 0.3153227954944181 2.249576263071912 1 0 0 0.3435408796564516
145 2 0 0.3153227954944168 0.1504237369280877 1 0 0 0.5129222280800217
146 2 0 0.1436760693667206 2.320929376321667 1 0 0 0.3704808045097601
147 2 0 0.1538367914186884 0.1017803340845773 1 0 0 0.6609299841753762
148 2 0 0.3133974596215563 1.950000000000003 1 0 0 0.4740477592922692
149 2 0 0.2310320309348868 2.000000000000004 1 0 0 0.2077565231020864
150 2 0 0.2317382162168514 2.100000000000002 1 0 0 0.4630327281120218
151 2 0 0.1401923788646708 2.050000000000005 1 0 0 0.6023561248936582
152 2 0 0.2317382162168478 1.900000000000004 1 0 0 0.7911145863514496
153 2 0 0.2257222122793583 1.789602720629601 1 0 0 0.2889044841862431
154 2 0 0.1401923788646675 1.850000000000005 1 0 0 0.6024505084553585
155 2 0 0.3133974596215556 1.150000000000002 1 0 0 0.549374152728534
156 2 0 0.2310320309348853 1.200000000000002 1 0 0 0.6057800486759557
157 2 0 0.2294792610693236 1.311031292058171 1 0 0 0.4383405596005531
158 2 0 0.2317382162168473 1.100000000000001 1 0 0 0.4194562898229156
159 2 0 0.1401923788646677 1.150000000000003 1 0 0 0.470759337912395
160 2 0 0.08616601475023369 1.450756084566868 1 0 0 0.6299025950591098
161 2 0 0.1705131727162578 1.504662521495676 1 0 0 0.243075595954271
162 2 0 0.1701372756475212 1.59624057951475 1 0 0 0.5342409908501158
163 2 0 0.2598076211353324 1.55 1 0 0 0.5729090019657942
164 2 0 0.1736329796941467 1.400945457783079 1 0 0 0.5753523294134393
165 2 0 0.3142213424505116 1.050000000000001 1 0 0 0.4085223349973716
166 2 0 0.2319932275686674 1 1 0 0 0.6097170896342373
167 2 0 0.2284526924894063 0.9021692350409554 1 0 0 0.6265515183852576
168 2 0 0.1401923788646681 0.9499999999999994 1 0 0 0.3681524306645591
169 2 0 0.08660254037844405 0.5500000000000005 1 0 0 0.4351386958161206
170 2 0 0.1689679690651143 0.6000000000000005 1 0 0 0.2892457031933505
171 2 0 0.168261783783152 0.7000000000000006 1 0 0 0.4148278627849736
172 2 0 0.2598076211353318 0.6500000000000008 1 0 0 0.3877477349187878
173 2 0 0.168261783783152 0.5000000000000002 1 0 0 0.8267974381497194
174 2 0 0.16976204415867 0.4045365074011971 1 0 0 0.4112894352925685
175 2 0 0.2585262435348609 0.4515911095029805 1 0 0 0.4462638790041911
176 2 0 0.08660254037844392 1.650000000000002 1 0 0 0.5667674265417846
177 2 0 0.1732050807568876 1.700000000000002 1 0 0 0.2809044472785369
178 2 0 0.3183019673181328 0.2519091714977094 1 0 0 0.4048181576770573
179 2 0 0.2294243486122215 0.1983523842539803 1 0 0 0.959597273068946
180 2 0 0.08660254037844392 0.7500000000000007 1 0 0 0.6096828722329236
181 2 0 0.318428468310358 1.353677097352724 1 0 0 0.5831473302673214
182 2 0 0.1629384512950744 0.7933995465617343 1 0 0 0.2929051652407473
183 2 0 0.08524963787216183 0.3509084716170886 1 0 0 0.4191829176196367
184 2 0 0.172952072423839 0.2975018361744461 1 0 0 0.6008620669213325
185 2 0 0.08692297755118251 1.247393650258342 1 0 0 0.4815356763308343
186 2 0 0.3178022935120305 1.746428571428574 1 0 0 0.4590993003517423
187 2 0 0.3162929089318669 0.85489804657469 1 0 0 0.5303635605083895
188 2 0 0.3145422317626583 2.149929377178653 1 0 0 0.5618101533340197
189 2 0 0.2387163839842535 2.200531798250854 1 0 0 0.6515383915908113
190 2 0 0.2428236430800104 2.31052081142178 1 0 0 0.5188886190271198
191 2 0 0.07724458541433357 2.255863461474413 1 0 0 0.3298649697578699
192 2 0 0.07616001009764702 0.15441364339719 1 0 0 0.347080847241237
193 2 0 0.2516202035007192 0.08628722782008169 1 0 0 0.309833199707525
194 2 0 0.1697804913512553 2.148284038790367 1 0 0 0.2768819217070033
195 2 0 0.06117987022780325 2.050000000000004 1 0 0 0.5265633432674381
196 2 0 0.1680495577988561 1.24794914096053 1 0 0 0.278643406273712
197 2 0 0.1659515090519033 1.950000000000004 1 0 0 0.377922247649659
198 2 0 0.2530094905743449 1.699884472906751 1 0 0 0.1837854384813555
199 2 0 0.2536769159536905 1.400284561491205 1 0 0 0.3290224716728384
200 2 0 0.2549546807769965 0.2980019611987839 1 0 0 0.2336776784340459
201 2 0 0.230812151380454 0.745802655852703 1 0 0 0.3650331774230507
202 2 0 0.1661437483786589 1.050000000000001 1 0 0 0.2662054086414808
203 2 0 0.233792215428003 0.5503182219005964 1 0 0 0.3577823798539123
204 2 0 0.3388201297721975 0.4500000000000001 1 0 0 0.292286867900539
205 2 0 0.3388201297721975 0.6500000000000009 1 0 0 0.6067231252541931
206 2 0 0.06117987022780251 0.9500000000000011 1 0 0 0.3174499394285235
207 2 0 0.06117987022780251 1.150000000000001 1 0 0 0.4620133171671723
208 2 0 0.06117987022780166 1.850000000000001 1 0 0 0.4679009711814541
209 2 0 0.3388201297721972 1.550000000000002 1 0 0 0.4369553224951051
210 2 0 0.142860276898273 0.2005925040423057 1 0 0 0.2885211427191708
211 2 0 0.07320508075688925 2.326794919243114 1 0 0 0.283388025149674
212 2 0 0.06805813757573018 0.07180059128507757 1 0 0 0.3680251847699675
213 2 0 0.3267949192431123 0.07320508075688781 1 0 0 0.3377839860852958
214 2 0 0.3267949192431095 2.326794919243111 1 0 0 0.3612450978884558
215 2 0 0.1599378681136568 2.235781418034272 1 0 0 0.6319111911404125
216 2 0 0.1484136325445382 1.312371209692264 1 0 0 0.1878598452707141
217 2 0 0.1629583801839851 0.8705419124015779 1 0 0 0.1367321230004773
218 2 0 0.2343343081343761 0.3625325412671154 1 0 0 0.1296517931525251
219 2 0 0.2390908786571732 0.8232647187259379 1 0 0 0.6081612155278594
220 2 0 0.1567078334029753 1.774370553739218 1 0 0 0.1292786836444513
221 2 0 0.2343271935783201 1.637018752072668 1 0 0 0.4528678046407147
222 2 0 0.2346214378553884 1.463384766565626 1 0 0 0.1962613108660871
223 2 0.4 0.3133974596215572 2.050000000000002 1 0 0 0.7010581900386124
224 2 0.4 0.3154764997775145 1.638968707941833 1 0 0 0.5403791306971775
225 2 0.4 0.3133974596215557 1.850000000000003 1 0 0 0.5824884855948822
226 2 0.4 0.08660254037844388 0.2500000000000001 1 0 0 0.5571421579040223
227 2 0.4 0.08660254037844391 0.4500000000000002 1 0 0 0.5256275050853728
228 2 0.4 0.0883814326241599 0.8603972793704032 1 0 0 0.392314969947095
229 2 0.4 0.08660254037844393 1.050000000000001 1 0 0 0.337518395555495
230 2 0.4 0.3133974596215562 1.250000000000002 1 0 0 0.5477583389476141
231 2 0.4 0.3154764997775143 1.46103129205817 1 0 0 0.656197505646794
232 2 0.4 0.313397459621556 0.6500000000000006 1 0 0 0.5746059396104699
233 2 0.4 0.08660254037844317 2.149999999999999 1 0 0 0.5247962582654949
234 2 0.4 0.08660254037844355 1.950000000000003 1 0 0 0.5227919261902428
235 2 0.4 0.08660254037844423 1.550000000000002 1 0 0 0.5329151164241757
236 2 0.4 0.08771166171098796 1.757879494327266 1 0 0 0.3613969990571307
237 2 0.4 0.3133974596215561 0.3500000000000001 1 0 0 0.2925626569515298
238 2 0.4 0.083983386609182 1.354536507401199 1 0 0 0.4173978251935254
239 2 0.4 0.3133974596215557 0.9500000000000007 1 0 0 0.6519850845702666
240 2 0.4 0.08660254037844403 0.6500000000000007 1 0 0 0.8377858836650278
241 2 0.4 0.3153227954944181 2.249576263071912 1 0 0 0.490704538190291
242 2 0.4 0.3153227954944168 0.1504237369280877 1 0 0 0.42744614264116
243 2 0.4 0.1436760693667206 2.320929376321667 1 0 0 0.3434083942516507
244 2 0.4 0.1436760693667189 0.07907062367833308 1 0 0 0.3458129887390876
245 2 0.4 0.3133974596215563 1.950000000000003 1 0 0 0.4371708615440755
246 2 0.4 0.2310320309348868 2.000000000000004 1 0 0 0.3113788745533858
247 2 0.4 0.2317382162168514 2.100000000000002 1 0 0 0.2911308898281679
248 2 0.4 0.1401923788646708 2.050000000000005 1 0 0 0.471220277981124
249 2 0.4 0.2317382162168478 1.900000000000004 1 0 0 0.545829324137951
250 2 0.4 0.2257222122793583 1.789602720629601 1 0 0 0.5077975127064598
251 2 0.4 0.1401923788646675 1.850000000000005 1 0 0 0.567901880948013
252 2 0.4 0.3133974596215556 1.150000000000002 1 0 0 0.5538549545627283
253 2 0.4 0.2310320309348853 1.200000000000002 1 0 0 0.5272052233907785
254 2 0.4 0.2294792610693236 1.311031292058171 1 0 0 0.4492204895865376
255 2 0.4 0.2317382162168473 1.100000000000001 1 0 0 0.5759370636193645
256 2 0.4 0.1401923788646677 1.150000000000003 1 0 0 0.5378705621498734
257 2 0.4 0.08616601475023369 1.450756084566868 1 0 0 0.7222797154750762
258 2 0.4 0.1705131727162578 1.504662521495676 1 0 0 0.4338083166400482
259 2 0.4 0.1701372756475212 1.59624057951475 1 0 0 0.770823276064055
260 2 0.4 0.2598076211353324 1.55 1 0 0 0.2929025392039573
261 2 0.4 0.1736329796941467 1.400945457783079 1 0 0 0.4399410206237409
262 2 0.4 0.313397459621556 0.5500000000000005 1 0 0 0.4616580504023047
263 2 0.4 0.2310320309348856 0.6000000000000005 1 0 0 0.4484462151594814
264 2 0.4 0.2294792610693235 0.7110312920581694 1 0 0 0.4604877741883437
265 2 0.4 0.2317382162168478 0.5000000000000004 1 0 0 0.5788784613136607
266 2 0.4 0.1401923788646681 0.5500000000000008 1 0 0 0.3561589905670361
267 2 0.4 0.3142213424505116 1.050000000000001 1 0 0 0.3657065246758823
268 2 0.4 0.2319932275686674 1 1 0 0 0.5982775640822051
269 2 0.4 0.2262162375356245 0.8921205056727368 1 0 0 0.573801777159854
270 2 0.4 0.1401923788646681 0.9499999999999994 1 0 0 0.5354624013502182
271 2 0.4 0.3180819616176981 0.751838548676362 1 0 0 0.602227269176981
272 2 0.4 0.08660254037844392 1.650000000000002 1 0 0 0.6673529669175815
273 2 0.4 0.1732050807568876 1.700000000000002 1 0 0 0.2129674648728251
274 2 0.4 0.08427986865013473 0.7562693872962649 1 0 0 0.5336751671489526
275 2 0.4 0.1714825440484608 0.8020222922854672 1 0 0 0.5731143653954409
276 2 0.4 0.3142213424505119 0.4500000000000002 1 0 0 0.580859495315227
277 2 0.4 0.2319932275686676 0.4000000000000002 1 0 0 0.5544153729356057
278 2 0.4 0.2318984156558117 0.3 1 0 0 0.3941778752950402
279 2 0.4 0.1401923788646683 0.35 1 0 0 0.3359145816259111
280 2 0.4 0.3145689316691495 0.250070622821348 1 0 0 0.611331734055467
281 2 0.4 0.318428468310358 1.353677097352724 1 0 0 0.51979590150973
282 2 0.4 0.238747533875161 0.1994682017491468 1 0 0 0.6136846849109892
283 2 0.4 0.08692297755118251 1.247393650258342 1 0 0 0.5178595932491097
284 2 0.4 0.3178022935120305 1.746428571428574 1 0 0 0.5746841010976262
285 2 0.4 0.318318874694772 0.8489931757248503 1 0 0 0.2929763134162729
286 2 0.4 0.3145422317626583 2.149929377178653 1 0 0 0.4741092742451565
287 2 0.4 0.2387163839842535 2.200531798250854 1 0 0 0.6069854513467361
288 2 0.4 0.2428236430800104 2.31052081142178 1 0 0 0.5703394576554291
289 2 0.4 0.07724458541433357 2.255863461474413 1 0 0 0.5203759283752218
290 2 0.4 0.07724458541433241 0.1441365385255865 1 0 0 0.5214685689477366
291 2 0.4 0.2428259134802216 0.08947918857822024 1 0 0 0.5719041682322619
292 2 0.4 0.1697804913512553 2.148284038790367 1 0 0 0.3792875579573373
293 2 0.4 0.06117987022780325 2.050000000000004 1 0 0 0.502422654048989
294 2 0.4 0.1680495577988561 1.24794914096053 1 0 0 0.1847514401486377
295 2 0.4 0.1659515090519033 1.950000000000004 1 0 0 0.55515861165115
296 2 0.4 0.2530094905743449 1.699884472906751 1 0 0 0.3890157437102403
297 2 0.4 0.2536769159536905 1.400284561491205 1 0 0 0.2286271665090628
298 2 0.4 0.1698078269698069 0.251715961209635 1 0 0 0.3470673127248745
299 2 0.4 0.1661437483786589 1.050000000000001 1 0 0 0.2462511940438106
300 2 0.4 0.06117987022780258 0.3500000000000001 1 0 0 0.6622154404697478
301 2 0.4 0.1661437483786591 0.4500000000000003 1 0 0 0.5575223222346287
302 2 0.4 0.06117987022780251 0.9500000000000011 1 0 0 0.5349345982862517
303 2 0.4 0.1689592738777276 0.647650067293071 1 0 0 0.2091233707545602
304 2 0.4 0.06117987022780243 0.5500000000000002 1 0 0 0.4572641147009575
305 2 0.4 0.2527157757931758 0.8012011628835171 1 0 0 0.2432860724031986
306 2 0.4 0.06117987022780251 1.150000000000001 1 0 0 0.5521758965836937
307 2 0.4 0.06117987022780166 1.850000000000001 1 0 0 0.5856962812855205
308 2 0.4 0.3388201297721972 1.550000000000002 1 0 0 0.233668606760012
309 2 0.4 0.07320508075688925 2.326794919243114 1 0 0 0.2735918891172634
310 2 0.4 0.07320508075688781 0.07320508075688778 1 0 0 0.2787992171856646
311 2 0.4 0.3267949192431123 0.07320508075688781 1 0 0 0.4063597840753309
312 2 0.4 0.3267949192431095 2.326794919243111 1 0 0 0.3381992797309663
313 2 0.4 0.1599378681136568 2.235781418034272 1 0 0 0.4507705228278799
314 2 0.4 0.1599231767932868 0.1648886040646981 1 0 0 0.4562806677892025
315 2 0.4 0.1484136325445382 1.312371209692264 1 0 0 0.2998077781039526
316 2 0.4 0.1568315796605393 0.8751767154066279 1 0 0 0.09343343677049296
317 2 0.4 0.1481606976048181 0.7133946077865947 1 0 0 0.2389034842295976
318 2 0.4 0.1567078334029753 1.774370553739218 1 0 0 0.1681752523661053
319 2 0.4 0.2343271935783201 1.637018752072668 1 0 0 0.3145428235490343
320 2 0.4 0.2346214378553884 1.463384766565626 1 0 0 0.184305046757522
321 2 0.3122883382890115 0 2.057879494327265 1 0 0 0.5545234770731674
322 2 0.3133974596215563 0 1.650000000000003 1 0 0 0.7989966462483901
323 2 0.08660254037844367 0 1.850000000000002 1 0 0 0.5306523830988391
324 2 0.08660254037844388 0 0.2500000000000001 1 0 0 0.576818033927823
325 2 0.08660254037844391 0 0.4500000000000002 1 0 0 0.5452328442342109
326 2 0.08660254037844393 0 0.8500000000000011 1 0 0 0.4427171967356524
327 2 0.08660254037844393 0 1.050000000000001 1 0 0 0.5552513545017956
328 2 0.313397459621556 0 1.250000000000002 1 0 0 0.6167938769372984
329 2 0.3116185673758399 0 1.460397279370404 1 0 0 0.4564084602101858
330 2 0.08660254037844403 0 0.6500000000000007 1 0 0 0.6035680185575431
331 2 0.08660254037844292 0 2.150000000000001 1 0 0 0.4325505135525654
332 2 0.3133974596215561 0 0.3500000000000001 1 0 0 0.6830443736741225
333 2 0.08660254037844413 0 1.550000000000002 1 0 0 0.4013501706036904
334 2 0.08660254037844393 0 1.350000000000001 1 0 0 0.5102522472760113
335 2 0.3133974596215562 0 0.9500000000000011 1 0 0 0.5862492326615071
336 2 0.313397459621556 0 0.5500000000000003 1 0 0 0.3033878314111499
337 2 0.3133974596215561 0 0.7500000000000007 1 0 0 0.5715131742405662
338 2 0.3133974596215562 0 1.850000000000002 1 0 0 0.4823077325564195
339 2 0.3153227954944168 0 0.1504237369280877 1 0 0 0.5709634724643577
340 2 0.2575270758305033 0 2.321492643275699 1 0 0 0.4132246632395097
341 2 0.1436760693667189 0 0.07907062367833304 1 0 0 0.2817694770815428
342 2 0.08467720450558276 0 2.249576263071913 1 0 0 0.5286770247000447
343 2 0.1670358257504991 0 2.200204674863602 1 0 0 0.5268494769098923
344 2 0.1741026508588333 0 2.089631959895828 1 0 0 0.3208327462759406
345 2 0.2598076211353295 0 2.15 1 0 0 0.4142783457503691
346 2 0.08236542868666991 0 1.950000000000002 1 0 0 0.3249149945618367
347 2 0.170520738930676 0 1.911031292058172 1 0 0 0.550077770580605
348 2 0.1685205787607457 0 1.801838548676364 1 0 0 0.4551591045636135
349 2 0.3158317598353936 0 1.955849756455743 1 0 0 0.6225025140224684
350 2 0.2282208670708687 0 2.001372492095584 1 0 0 0.4452098155731624
351 2 0.3133974596215561 0 1.150000000000001 1 0 0 0.4400915750080278
352 2 0.2267949192431122 0 1.200000000000001 1 0 0 0.3364618393992412
353 2 0.2310320309348858 0 1.100000000000001 1 0 0 0.4801601431567653
354 2 0.2310320309348858 0 1.300000000000002 1 0 0 0.4081208018179406
355 2 0.1401923788646682 0 1.250000000000001 1 0 0 0.4953787301837392
356 2 0.08660254037844395 0 1.650000000000002 1 0 0 0.5631206545677312
357 2 0.1689679690651147 0 1.600000000000002 1 0 0 0.6536419361274244
358 2 0.1715890087389791 0 1.502169235040957 1 0 0 0.1786552924280607
359 2 0.2598076211353317 0 1.550000000000002 1 0 0 0.5715148300464014
360 2 0.313397459621556 0 1.350000000000002 1 0 0 0.6550362213378662
361 2 0.236943851157932 0 1.393399546561736 1 0 0 0.4893011624379934
362 2 0.08371404127286425 0 1.454898046574692 1 0 0 0.6820670262623674
363 2 0.3133974596215561 0 0.6500000000000006 1 0 0 0.6326159992808549
364 2 0.2310320309348857 0 0.6000000000000004 1 0 0 0.3139590170107358
365 2 0.2317382162168479 0 0.5000000000000001 1 0 0 0.5161916703230296
366 2 0.1401923788646681 0 0.5500000000000004 1 0 0 0.6649509969718161
367 2 0.231738216216848 0 0.7000000000000006 1 0 0 0.3895499397791048
368 2 0.2318559137638418 0 0.8000000000000008 1 0 0 0.4064824678773113
369 2 0.1401923788646683 0 0.7500000000000008 1 0 0 0.6106624121173836
370 2 0.1674810334504619 0 1.700306424779396 1 0 0 0.4461070742600868
371 2 0.3142409587083445 0 0.8500000000000008 1 0 0 0.4988233965176233
372 2 0.2320161132028054 0 0.9000000000000008 1 0 0 0.5640367609362139
373 2 0.3137183489336996 0 0.250070622821348 1 0 0 0.4341975522611446
374 2 0.2310855124869097 0 0.3000117704702247 1 0 0 0.3178901725290279
375 2 0.2325710126378079 0 0.4000019617450374 1 0 0 0.302139859145873
376 2 0.1401923788646684 0 0.3499999999999999 1 0 0 0.4749216817842243
377 2 0.1519027981107038 0 1.133333333333334 1 0 0 0.536669225188162
378 2 0.3138625171656536 0 0.4500000851097217 1 0 0 0.6302161925438204
379 2 0.2326084152101303 0 1.000000000000001 1 0 0 0.601682456144394
380 2 0.1401923788646684 0 0.9500000000000007 1 0 0 0.5702944377227908
381 2 0.3142521031299569 0 1.050000000000001 1 0 0 0.4775701505977161
382 2 0.08536342736623329 0 1.75025535398283 1 0 0 0.6241262555971808
383 2 0.2598076211353321 0 1.750000000000004 1 0 0 0.3381679837729756
384 2 0.2384702862244357 0 0.1994701634941842 1 0 0 0.6291750104898073
385 2 0.08180883842169874 0 2.048271993315973 1 0 0 0.657685618188824
386 2 0.1591014850604109 0 2.308054275848486 1 0 0 0.5257051189930289
387 2 0.07724458541433239 0 0.1441365385255865 1 0 0 0.3171147727061198
388 2 0.242805705925504 0 0.08947933156255237 1 0 0 0.6609902017515581
389 2 0.3186018412076103 0 2.243287737444596 1 0 0 0.6672158669823909
390 2 0.3388201297721963 0 2.149999999999998 1 0 0 0.2981587549054494
391 2 0.1474037047937493 0 2.000061547473112 1 0 0 0.2713968146325204
392 2 0.2309512480613983 0 1.848017777028345 1 0 0 0.4626218878481752
393 2 0.1684676326997665 0 1.046666666666668 1 0 0 0.2435988471346354
394 2 0.3388201297721967 0 1.550000000000002 1 0 0 0.4512056989510704
395 2 0.07331293126360304 0 1.16388888888889 1 0 0 0.4660221405948452
396 2 0.1661718650148856 0 0.8500000000000008 1 0 0 0.2662805385416436
397 2 0.06117987022780262 0 0.3500000000000001 1 0 0 0.5456028567541716
398 2 0.1696520911384315 0 0.2517179229546724 1 0 0 0.3787367213592123
399 2 0.06117987022780281 0 0.9500000000000012 1 0 0 0.508595435300665
400 2 0.06002157010134305 0 1.252777777777779 1 0 0 0.4663863074322694
401 2 0.1690701510725525 0 1.345802655852705 1 0 0 0.5030554515476298
402 2 0.1662593053924873 0 0.4500003923490076 1 0 0 0.5543988715190438
403 2 0.3388201297721973 0 1.750000000000003 1 0 0 0.4616961951262576
404 2 0.06117987022780284 0 0.7500000000000004 1 0 0 0.3882158234128029
405 2 0.06117987022780259 0 0.5500000000000002 1 0 0 0.5900895044901414
406 2 0.1659515090519028 0 0.6500000000000007 1 0 0 0.374378232207307
407 2 0.2338923408815593 0 1.650061284955881 1 0 0 0.266625211730231
408 2 0.2324147697968706 0 2.244607866286477 1 0 0 0.2047323473814824
409 2 0.07320508075688781 0 0.07320508075688777 1 0 0 0.3082206774580875
410 2 0.07320508075689115 0 2.326794919243112 1 0 0 0.3922808119223714
411 2 0.3267949192431123 0 0.07320508075688781 1 0 0 0.4503845996905589
412 2 0.3293661596188173 0 2.328775336195359 1 0 0 0.3678112794032138
413 2 0.1599208424330711 0 0.1642187583885021 1 0 0 0.4336326103780674
414 2 0.2440926985197606 0 2.077219044407181 1 0 0 0.1865152935063288
415 2 0.2517844147039786 0 1.913254263527569 1 0 0 0.4199354682253968
416 2 0.2370360807257368 0 1.470541912401579 1 0 0 0.1970796363065515
417 2 0.1608927707687501 0 1.423264718725941 1 0 0 0.2595764589710463
418 2 0.3116185673758395 0.4 2.060397279370404 1 0 0 0.6960920438745773
419 2 0.3176345713133297 0.4 1.650000000000003 1 0 0 0.5371814781954719
420 2 0.3133974596215562 0.4 1.850000000000002 1 0 0 0.589123064414203
421 2 0.08660254037844388 0.4 0.2500000000000001 1 0 0 0.5916172261459693
422 2 0.08660254037844391 0.4 0.4500000000000002 1 0 0 0.6175054489288019
423 2 0.08660254037844393 0.4 0.8500000000000011 1 0 0 0.5474447998200107
424 2 0.08660254037844393 0.4 1.050000000000001 1 0 0 0.4316217533237889
425 2 0.313397459621556 0.4 1.250000000000002 1 0 0 0.6705245089240351
426 2 0.313397459621556 0.4 1.450000000000002 1 0 0 0.6802301791606451
427 2 0.08660254037844403 0.4 0.6500000000000007 1 0 0 0.5592234449055088
428 2 0.08660254037844303 0.4 2.150000000000001 1 0 0 0.5573018212543382
429 2 0.08660254037844355 0.4 1.950000000000003 1 0 0 0.7396629102775465
430 2 0.08771166171098821 0.4 1.757879494327266 1 0 0 0.4670550081932143
431 2 0.3133974596215561 0.4 0.3500000000000001 1 0 0 0.371198148707104
432 2 0.08660254037844393 0.4 1.550000000000002 1 0 0 0.5758617981782409
433 2 0.08660254037844393 0.4 1.350000000000001 1 0 0 0.4870477143105015
434 2 0.3133974596215562 0.4 0.9500000000000011 1 0 0 0.6603308636915727
435 2 0.313397459621556 0.4 0.5500000000000003 1 0 0 0.5630950813933084
436 2 0.3133974596215561 0.4 0.7500000000000007 1 0 0 0.4692183199605391
437 2 0.3153227954944168 0.4 0.1504237369280877 1 0 0 0.5750666566343863
438 2 0.2575270758305033 0.4 2.321492643275699 1 0 0 0.3458735782196966
439 2 0.1436760693667189 0.4 0.07907062367833304 1 0 0 0.2877773158880286
440 2 0.08467720450558278 0.4 2.249576263071913 1 0 0 0.3205902212082863
441 2 0.1670358257504991 0.4 2.200204674863602 1 0 0 0.4478415751991684
442 2 0.1715051832793331 0.4 2.102178114798678 1 0 0 0.4705565559609231
443 2 0.258907355284795 0.4 2.150780334635954 1 0 0 0.2978467215886612
444 2 0.3131009775806031 0.4 1.951732879895069 1 0 0 0.4431942978176856
445 2 0.2309826172613932 0.4 1.900288813315846 1 0 0 0.5510579902790779
446 2 0.2256142695714364 0.4 1.789643979674721 1 0 0 0.3434624709102276
447 2 0.1401923788646684 0.4 1.850000000000004 1 0 0 0.6552677299795565
448 2 0.2368862018721904 0.4 1.99373649543022 1 0 0 0.2693787200702705
449 2 0.3133974596215561 0.4 1.150000000000001 1 0 0 0.4625125010981748
450 2 0.2267949192431122 0.4 1.200000000000001 1 0 0 0.338196316130396