LAMMPS data file for tetmsm

3605 atoms
21241 bonds
15554 impropers

2 atom types
1 bond types
1 improper types

-0.2 0.6000000000000001 xlo xhi
-0.2 0.6000000000000001 ylo yhi
-1.2 3.5999999999999996 zlo zhi

Masses

1 1.0
2 1.0

Atoms  # hybrid full sphere

1 2 0 0 2.4 1 0 0 0.01245992106985791
2 2 0 0 0 1 0 0 0.01239267296722953
3 2 0 0.4 2.4 1 0 0 0.01245992106985514
4 2 0 0.4 0 1 0 0 0.01239267296722946
5 2 0.4 0 2.4 1 0 0 0.01245992106986019
6 2 0.4 0 0 1 0 0 0.01245992106986075
7 2 0.4 0.4 2.4 1 0 0 0.01238098973583224
8 2 0.4 0.4 0 1 0 0 0.0123809897358355
9 2 0 0 0.05000000000000003 1 0 0 0.01089950446913173
10 2 0 0 0.1000000000000001 1 0 0 0.01140794058632669
11 2 0 0 0.15 1 0 0 0.01308096468477445
12 2 0 0 0.2000000000000001 1 0 0 0.01656138085603074
13 2 0 0 0.2500000000000001 1 0 0 0.01577030086967531
14 2 0 0 0.3000000000000001 1 0 0 0.02371954606293766
15 2 0 0 0.3500000000000001 1 0 0 0.01489151357771259
16 2 0 0 0.4000000000000001 1 0 0 0.01494504402949933
17 2 0 0 0.4500000000000001 1 0 0 0.02793129196429002
18 2 0 0 0.5000000000000002 1 0 0 0.01549317102735913
19 2 0 0 0.5500000000000004 1 0 0 0.01531955280423237
20 2 0 0 0.6000000000000004 1 0 0 0.02595828021993809
21 2 0 0 0.6500000000000006 1 0 0 0.01599074392163074
22 2 0 0 0.7000000000000007 1 0 0 0.01562500000000035
23 2 0 0 0.7500000000000009 1 0 0 0.01527039773551015
24 2 0 0 0.8000000000000009 1 0 0 0.01477640933616105
25 2 0 0 0.8500000000000011 1 0 0 0.01492558776434029
26 2 0 0 0.900000000000001 1 0 0 0.02632938821896683
27 2 0 0 0.9500000000000011 1 0 0 0.0155148999335484
28 2 0 0 1.000000000000001 1 0 0 0.01562500000000201
29 2 0 0 1.050000000000001 1 0 0 0.01569432769077806
30 2 0 0 1.100000000000001 1 0 0 0.02723458612305061
31 2 0 0 1.150000000000001 1 0 0 0.0156250000000018
32 2 0 0 1.200000000000001 1 0 0 0.01562500000000186
33 2 0 0 1.250000000000002 1 0 0 0.01402105279537493
34 2 0 0 1.300000000000002 1 0 0 0.02893375016138729
35 2 0 0 1.350000000000002 1 0 0 0.01194492761855138
36 2 0 0 1.400000000000002 1 0 0 0.01220653417370064
37 2 0 0 1.450000000000002 1 0 0 0.02467778353924786
38 2 0 0 1.500000000000002 1 0 0 0.01226495098641321
39 2 0 0 1.550000000000002 1 0 0 0.01562500000000172
40 2 0 0 1.600000000000003 1 0 0 0.01562500000000061
41 2 0 0 1.650000000000002 1 0 0 0.02602821965207728
42 2 0 0 1.700000000000002 1 0 0 0.0153492779361834
43 2 0 0 1.750000000000002 1 0 0 0.02527343797987084
44 2 0 0 1.800000000000002 1 0 0 0.01531834582792563
45 2 0 0 1.850000000000002 1 0 0 0.01476213988173636
46 2 0 0 1.900000000000003 1 0 0 0.02379286286375801
47 2 0 0 1.950000000000003 1 0 0 0.01264212181832047
48 2 0 0 2.000000000000003 1 0 0 0.01721002412707003
49 2 0 0 2.050000000000002 1 0 0 0.0122329874262351
50 2 0 0 2.100000000000002 1 0 0 0.02666372792221793
51 2 0 0 2.150000000000001 1 0 0 0.01505095996700066
52 2 0 0 2.200000000000001 1 0 0 0.02842364769943409
53 2 0 0 2.250000000000001 1 0 0 0.01567061366513887
54 2 0 0 2.3 1 0 0 0.01380810670039563
55 2 0 0 2.35 1 0 0 0.01063284075242412
56 2 0 0.05000000000000009 2.4 1 0 0 0.01195100155582142
57 2 0 0.1000000000000002 2.4 1 0 0 0.01573054257448614
58 2 0 0.1500000000000002 2.4 1 0 0 0.01578429311559582
59 2 0 0.2000000000000001 2.4 1 0 0 0.01746443091193622
60 2 0 0.2500000000000002 2.4 1 0 0 0.01789539148253926
61 2 0 0.3000000000000002 2.4 1 0 0 0.01471019771852442
62 2 0 0.3500000000000001 2.4 1 0 0 0.01120868288511413
63 2 0 0.4 0.05000000000000003 1 0 0 0.01173871821902563
64 2 0 0.4 0.1000000000000001 1 0 0 0.01265541800498862
65 2 0 0.4 0.15 1 0 0 0.01323820241229232
66 2 0 0.4 0.2000000000000001 1 0 0 0.02711899473316037
67 2 0 0.4 0.2500000000000001 1 0 0 0.01588233498312845
68 2 0 0.4 0.3000000000000001 1 0 0 0.01562497579323508
69 2 0 0.4 0.3500000000000001 1 0 0 0.01562493234927841
70 2 0 0.4 0.4000000000000001 1 0 0 0.02719248565893752
71 2 0 0.4 0.4500000000000001 1 0 0 0.01562504786787927
72 2 0 0.4 0.5000000000000002 1 0 0 0.01562444570083188
73 2 0 0.4 0.5500000000000004 1 0 0 0.0269759066742579
74 2 0 0.4 0.6000000000000004 1 0 0 0.01562465657368843
75 2 0 0.4 0.6500000000000006 1 0 0 0.01562442761535453
76 2 0 0.4 0.7000000000000007 1 0 0 0.02439229370681175
77 2 0 0.4 0.7500000000000009 1 0 0 0.0156249844226771
78 2 0 0.4 0.8000000000000009 1 0 0 0.02400793962647003
79 2 0 0.4 0.8500000000000011 1 0 0 0.01562504786788831
80 2 0 0.4 0.900000000000001 1 0 0 0.01562500000002687
81 2 0 0.4 0.9500000000000011 1 0 0 0.01562500000002335
82 2 0 0.4 1.000000000000001 1 0 0 0.01562450939098397
83 2 0 0.4 1.050000000000001 1 0 0 0.01562470563458958
84 2 0 0.4 1.100000000000001 1 0 0 0.0156250000000026
85 2 0 0.4 1.150000000000001 1 0 0 0.01562500000000099
86 2 0 0.4 1.200000000000001 1 0 0 0.0156250000000016
87 2 0 0.4 1.250000000000002 1 0 0 0.02540038534277365
88 2 0 0.4 1.300000000000002 1 0 0 0.01562500000001083
89 2 0 0.4 1.350000000000002 1 0 0 0.01562500000001512
90 2 0 0.4 1.400000000000002 1 0 0 0.01562500000001227
91 2 0 0.4 1.450000000000002 1 0 0 0.02698932146940751
92 2 0 0.4 1.500000000000002 1 0 0 0.01562500000000546
93 2 0 0.4 1.550000000000002 1 0 0 0.02605679117884914
94 2 0 0.4 1.600000000000003 1 0 0 0.01562500000001439
95 2 0 0.4 1.650000000000002 1 0 0 0.01562500000005726
96 2 0 0.4 1.700000000000002 1 0 0 0.02645302720589213
97 2 0 0.4 1.750000000000002 1 0 0 0.0156250000005564
98 2 0 0.4 1.800000000000002 1 0 0 0.01562500000040322
99 2 0 0.4 1.850000000000002 1 0 0 0.0250238354855206
100 2 0 0.4 1.900000000000003 1 0 0 0.02853009332876539
101 2 0 0.4 1.950000000000003 1 0 0 0.01562500054613891
102 2 0 0.4 2.000000000000003 1 0 0 0.0268435338074155
103 2 0 0.4 2.050000000000002 1 0 0 0.02663713025488274
104 2 0 0.4 2.100000000000002 1 0 0 0.01562501171041054
105 2 0 0.4 2.150000000000001 1 0 0 0.01562500231857872
106 2 0 0.4 2.200000000000001 1 0 0 0.02585181853639535
107 2 0 0.4 2.250000000000001 1 0 0 0.01563452319615614
108 2 0 0.4 2.3 1 0 0 0.01524778669898958
109 2 0 0.4 2.35 1 0 0 0.01142671931207139
110 2 0 0.05000000000000009 0 1 0 0 0.01213292584018913
111 2 0 0.1000000000000002 0 1 0 0 0.01598701429393548
112 2 0 0.1500000000000002 0 1 0 0 0.015859910951827
113 2 0 0.2000000000000001 0 1 0 0 0.03136347820167708
114 2 0 0.2500000000000002 0 1 0 0 0.01789905914213633
115 2 0 0.3000000000000002 0 1 0 0 0.01471316131663883
116 2 0 0.3500000000000001 0 1 0 0 0.01121560738431648
117 2 0.4 0 0.05000000000000003 1 0 0 0.01071226178084525
118 2 0.4 0 0.1000000000000001 1 0 0 0.01391578428782493
119 2 0.4 0 0.15 1 0 0 0.02615172451927842
120 2 0.4 0 0.2000000000000001 1 0 0 0.02586739070366593
121 2 0.4 0 0.2500000000000001 1 0 0 0.02694797911952629
122 2 0.4 0 0.3000000000000001 1 0 0 0.01562499999999996
123 2 0.4 0 0.3500000000000001 1 0 0 0.02623984067134195
124 2 0.4 0 0.4000000000000001 1 0 0 0.01494504402949967
125 2 0.4 0 0.4500000000000001 1 0 0 0.01562500000000007
126 2 0.4 0 0.5000000000000002 1 0 0 0.02499308581832451
127 2 0.4 0 0.5500000000000004 1 0 0 0.01531955280423227
128 2 0.4 0 0.6000000000000004 1 0 0 0.02574754080481751
129 2 0.4 0 0.6500000000000006 1 0 0 0.02794472707527871
130 2 0.4 0 0.7000000000000007 1 0 0 0.01512840110377155
131 2 0.4 0 0.7500000000000009 1 0 0 0.0152703977355104
132 2 0.4 0 0.8000000000000009 1 0 0 0.01488890015242297
133 2 0.4 0 0.8500000000000011 1 0 0 0.02623511888245019
134 2 0.4 0 0.900000000000001 1 0 0 0.01978822731642075
135 2 0.4 0 0.9500000000000011 1 0 0 0.02312910745033228
136 2 0.4 0 1.000000000000001 1 0 0 0.01220653417370124
137 2 0.4 0 1.050000000000001 1 0 0 0.01223682845389659
138 2 0.4 0 1.100000000000001 1 0 0 0.0169835397452035
139 2 0.4 0 1.150000000000001 1 0 0 0.01137850021833361
140 2 0.4 0 1.200000000000001 1 0 0 0.01971252345873559
141 2 0.4 0 1.250000000000002 1 0 0 0.01327129071140367
142 2 0.4 0 1.300000000000002 1 0 0 0.01460345634125271
143 2 0.4 0 1.350000000000002 1 0 0 0.01221655341138834
144 2 0.4 0 1.400000000000002 1 0 0 0.01179524015635571
145 2 0.4 0 1.450000000000002 1 0 0 0.01764067361114308
146 2 0.4 0 1.500000000000002 1 0 0 0.01072094096233084
147 2 0.4 0 1.550000000000002 1 0 0 0.01721428266322103
148 2 0.4 0 1.600000000000003 1 0 0 0.01213882323004337
149 2 0.4 0 1.650000000000002 1 0 0 0.01280236289664893
150 2 0.4 0 1.700000000000002 1 0 0 0.01704618371431822
151 2 0.4 0 1.750000000000002 1 0 0 0.02152460996721616
152 2 0.4 0 1.800000000000002 1 0 0 0.01498641797375494
153 2 0.4 0 1.850000000000002 1 0 0 0.01444768271539214
154 2 0.4 0 1.900000000000003 1 0 0 0.0130120444779814
155 2 0.4 0 1.950000000000003 1 0 0 0.010421120855885
156 2 0.4 0 2.000000000000003 1 0 0 0.02533400470130505
157 2 0.4 0 2.050000000000002 1 0 0 0.01053195622658885
158 2 0.4 0 2.100000000000002 1 0 0 0.01524633074264552
159 2 0.4 0 2.150000000000001 1 0 0 0.02537645676058736
160 2 0.4 0 2.200000000000001 1 0 0 0.01613846409832788
161 2 0.4 0 2.250000000000001 1 0 0 0.01545211587693068
162 2 0.4 0 2.3 1 0 0 0.01280689445271065
163 2 0.4 0 2.35 1 0 0 0.01021091463780844
164 2 0.4 0.05000000000000009 2.4 1 0 0 0.01223242438225536
165 2 0.4 0.1000000000000002 2.4 1 0 0 0.01640998258081185
166 2 0.4 0.1500000000000002 2.4 1 0 0 0.01592847115158702
167 2 0.4 0.2000000000000001 2.4 1 0 0 0.02724838059620065
168 2 0.4 0.2500000000000002 2.4 1 0 0 0.01774561137021523
169 2 0.4 0.3000000000000002 2.4 1 0 0 0.01571417287020222
170 2 0.4 0.3500000000000001 2.4 1 0 0 0.01121107787421848
171 2 0.4 0.4 0.05000000000000003 1 0 0 0.01152070356033722
172 2 0.4 0.4 0.1000000000000001 1 0 0 0.02630272480051691
173 2 0.4 0.4 0.15 1 0 0 0.01562500000000014
174 2 0.4 0.4 0.2000000000000001 1 0 0 0.01562500000000504
175 2 0.4 0.4 0.2500000000000001 1 0 0 0.01447860132968639
176 2 0.4 0.4 0.3000000000000001 1 0 0 0.01264833576068888
177 2 0.4 0.4 0.3500000000000001 1 0 0 0.01717715347550823
178 2 0.4 0.4 0.4000000000000001 1 0 0 0.01954791309155153
179 2 0.4 0.4 0.4500000000000001 1 0 0 0.02773876852164583
180 2 0.4 0.4 0.5000000000000002 1 0 0 0.02265370631606111
181 2 0.4 0.4 0.5500000000000004 1 0 0 0.01498917069513642
182 2 0.4 0.4 0.6000000000000004 1 0 0 0.02534464976407778
183 2 0.4 0.4 0.6500000000000006 1 0 0 0.01542350066789267
184 2 0.4 0.4 0.7000000000000007 1 0 0 0.02799100744231266
185 2 0.4 0.4 0.7500000000000009 1 0 0 0.01374069222292349
186 2 0.4 0.4 0.8000000000000009 1 0 0 0.01719686245897175
187 2 0.4 0.4 0.8500000000000011 1 0 0 0.01205034140723231
188 2 0.4 0.4 0.900000000000001 1 0 0 0.01484234286512234
189 2 0.4 0.4 0.9500000000000011 1 0 0 0.01493807866369995
190 2 0.4 0.4 1.000000000000001 1 0 0 0.01562470563459269
191 2 0.4 0.4 1.050000000000001 1 0 0 0.01438485603860279
192 2 0.4 0.4 1.100000000000001 1 0 0 0.01557759185959295
193 2 0.4 0.4 1.150000000000001 1 0 0 0.01210913172365616
194 2 0.4 0.4 1.200000000000001 1 0 0 0.01307235750798163
195 2 0.4 0.4 1.250000000000002 1 0 0 0.01716126277302048
196 2 0.4 0.4 1.300000000000002 1 0 0 0.01208947154876779
197 2 0.4 0.4 1.350000000000002 1 0 0 0.02787911067573872
198 2 0.4 0.4 1.400000000000002 1 0 0 0.02344265127973344
199 2 0.4 0.4 1.450000000000002 1 0 0 0.01513124075715186
200 2 0.4 0.4 1.500000000000002 1 0 0 0.02162647642148506
201 2 0.4 0.4 1.550000000000002 1 0 0 0.0171668839875233
202 2 0.4 0.4 1.600000000000003 1 0 0 0.01220653417370366
203 2 0.4 0.4 1.650000000000002 1 0 0 0.01220653417372164
204 2 0.4 0.4 1.700000000000002 1 0 0 0.01716677557583041
205 2 0.4 0.4 1.750000000000002 1 0 0 0.01209202809239194
206 2 0.4 0.4 1.800000000000002 1 0 0 0.02757473993062861
207 2 0.4 0.4 1.850000000000002 1 0 0 0.01529924408312582
208 2 0.4 0.4 1.900000000000003 1 0 0 0.01447860133583529
209 2 0.4 0.4 1.950000000000003 1 0 0 0.01264835041685014
210 2 0.4 0.4 2.000000000000003 1 0 0 0.01718570823052533
211 2 0.4 0.4 2.050000000000002 1 0 0 0.01208948394438749
212 2 0.4 0.4 2.100000000000002 1 0 0 0.02639099865812037
213 2 0.4 0.4 2.150000000000001 1 0 0 0.01529924373391381
214 2 0.4 0.4 2.200000000000001 1 0 0 0.02705032528435112
215 2 0.4 0.4 2.250000000000001 1 0 0 0.01528536047640854
216 2 0.4 0.4 2.3 1 0 0 0.01378975500921017
217 2 0.4 0.4 2.35 1 0 0 0.01062975034428253
218 2 0.4 0.05000000000000009 0 1 0 0 0.01192844370696553
219 2 0.4 0.1000000000000002 0 1 0 0 0.0169175154974026
220 2 0.4 0.1500000000000002 0 1 0 0 0.01629573650646504
221 2 0.4 0.2000000000000001 0 1 0 0 0.03050097121588581
222 2 0.4 0.2500000000000002 0 1 0 0 0.01772740886829449
223 2 0.4 0.3000000000000002 0 1 0 0 0.01571718279873995
224 2 0.4 0.3500000000000001 0 1 0 0 0.01121802522564072
225 2 0.05000000000000009 0 0 1 0 0 0.01187911267758688
226 2 0.1000000000000002 0 0 1 0 0 0.0127622178549741
227 2 0.1500000000000002 0 0 1 0 0 0.01346935683365136
228 2 0.2000000000000001 0 0 1 0 0 0.01339734984929055
229 2 0.2500000000000002 0 0 1 0 0 0.01362647744893588
230 2 0.3000000000000002 0 0 1 0 0 0.01531542313687424
231 2 0.3500000000000001 0 0 1 0 0 0.01073676996998906
232 2 0.05000000000000009 0 2.4 1 0 0 0.01186415437500538
233 2 0.1000000000000002 0 2.4 1 0 0 0.02303224131533553
234 2 0.1500000000000002 0 2.4 1 0 0 0.01529619366216586
235 2 0.2000000000000001 0 2.4 1 0 0 0.02867642440179224
236 2 0.2500000000000002 0 2.4 1 0 0 0.01480109598994925
237 2 0.3000000000000002 0 2.4 1 0 0 0.01678414672789129
238 2 0.3500000000000001 0 2.4 1 0 0 0.01200020384388257
239 2 0.05000000000000009 0.4 0 1 0 0 0.01163144333296525
240 2 0.1000000000000002 0.4 0 1 0 0 0.01322982852383263
241 2 0.1500000000000002 0.4 0 1 0 0 0.01293455622418646
242 2 0.2000000000000001 0.4 0 1 0 0 0.02340625428101337
243 2 0.2500000000000002 0.4 0 1 0 0 0.01395562905907608
244 2 0.3000000000000002 0.4 0 1 0 0 0.01537599472717715
245 2 0.3500000000000001 0.4 0 1 0 0 0.01066458953398726
246 2 0.05000000000000009 0.4 2.4 1 0 0 0.01181108692264634
247 2 0.1000000000000002 0.4 2.4 1 0 0 0.0134550089311079
248 2 0.1500000000000002 0.4 2.4 1 0 0 0.01492281761089979
249 2 0.2000000000000001 0.4 2.4 1 0 0 0.01580843344988973
250 2 0.2500000000000002 0.4 2.4 1 0 0 0.01513836783348151
251 2 0.3000000000000002 0.4 2.4 1 0 0 0.01650263228700885
252 2 0.3500000000000001 0.4 2.4 1 0 0 0.01154878020233086
253 2 0 0.3566987298107779 2.024999999999996 1 0 0 0.05116978497608763
254 2 0 0.356698729810773 2.175000000000002 1 0 0 0.05767361875880204
255 2 0 0.356698729810772 1.625000000000001 1 0 0 0.04674503137679418
256 2 0 0.3566987298107673 1.775000000000006 1 0 0 0.0492911544231542
257 2 0 0.3566987298107519 0.8750000000000009 1 0 0 0.05232449245440971
258 2 0 0.3566987298107597 0.2750000000000017 1 0 0 0.06854999457375784
259 2 0 0.356698729810778 0.4250000000000002 1 0 0 0.06334437279659028
260 2 0 0.356698729810778 0.5750000000000003 1 0 0 0.04533782338659276
261 2 0 0.3566987298107785 1.075000000000001 1 0 0 0.05077597106038078
262 2 0 0.3566987298107535 1.375000000000001 1 0 0 0.09087971203842274
263 2 0 0.356698729810778 0.7250000000000008 1 0 0 0.04834268647547673
264 2 0 0.04330127018922206 1.225000000000002 1 0 0 0.0398168083385782
265 2 0 0.03862003116536619 1.923698960569802 1 0 0 0.04173746737132192
266 2 0 0.04330127018922203 0.9750000000000005 1 0 0 0.08668440869738488
267 2 0 0.04330127018922206 1.525000000000003 1 0 0 0.07588976753887125
268 2 0 0.04330127018922139 2.075000000000002 1 0 0 0.03475078724540141
269 2 0 0.04551441441212022 1.72579655475319 1 0 0 0.05140747432720591
270 2 0 0.04048197121590288 0.8250000000000004 1 0 0 0.09644337822187077
271 2 0 0.04330127018922192 0.3250000000000001 1 0 0 0.04012686334895894
272 2 0 0.04330127018922204 0.475 1 0 0 0.05860702965086828
273 2 0 0.04554425718862569 0.6242034452468144 1 0 0 0.03490839079395294
274 2 0 0.03583239886905107 1.375000000000014 1 0 0 0.02617273450618002
275 2 0 0.3566987298107771 1.225000000000001 1 0 0 0.03384883262093465
276 2 0 0.1714049204609053 0.04496975240985336 1 0 0 0.06884484121822548
277 2 0 0.1714049204609439 2.355030247590156 1 0 0 0.08906478266448285
278 2 0 0.04554425718863533 2.224203445246817 1 0 0 0.05544996222311049
279 2 0 0.04330127018922193 0.175 1 0 0 0.0921100963598938
280 2 0 0.04330127018922254 1.825000000000002 1 0 0 0.03724966108889134
281 2 0 0.3566987298107643 1.925000000000004 1 0 0 0.07604113868228339
282 2 0 0.3566987298107718 1.475000000000003 1 0 0 0.03645149743120367
283 2 0 0.04330127018922168 1.125000000000002 1 0 0 0.06053222030555685
284 2 0 0.04330127018922202 0.7250000000000008 1 0 0 0.04999932851254379
285 2 0 0.356698729810778 0.1750000000000002 1 0 0 0.06554043655151223
286 2 0 0.356698729810741 0.9750000000000028 1 0 0 0.05019745768433279
287 2 0 0.04330127018922173 1.625000000000003 1 0 0 0.03554678657542355
288 2 0 0.2793362827353295 2.35518519375223 1 0 0 0.1039165258116015
289 2 0 0.2793362827353105 0.04481480624776975 1 0 0 0.05419524968120425
290 2 0 0.356698729810776 2.275000000000001 1 0 0 0.1038481179530703
291 2 0 0.07476374304941756 2.351692185294522 1 0 0 0.04795410101311708
292 2 0 0.0747637430493904 0.04830781470548168 1 0 0 0.05438879950587588
293 2 0 0.3576613977472084 0.07521186846404382 1 0 0 0.06661843306293749
294 2 0 0.3576613977472091 2.324788131535962 1 0 0 0.05507502842395096
295 2 0 0.3092586137339457 2.307769393998685 1 0 0 0.06223118727184788
296 2 0 0.3127076519736158 2.251294898999782 1 0 0 0.06653694968432555
297 2 0 0.2700961894323333 2.275000000000004 1 0 0 0.04726701665047049
298 2 0 0.2699812214910061 2.225215816499968 1 0 0 0.03352138654536872
299 2 0 0.2267757579195556 2.250035969416668 1 0 0 0.08371928726525767
300 2 0 0.2267725643656262 2.200041964319445 1 0 0 0.06929729707230309
301 2 0 0.1834867296870445 2.225012988956025 1 0 0 0.0491168615386994
302 2 0 0.1834887700131596 2.175009158879251 1 0 0 0.06767499411801681
303 2 0 0.2267903802567366 2.15000852053312 1 0 0 0.08881690572350744
304 2 0 0.1834936490538771 2.125000000000012 1 0 0 0.03716845651293555
305 2 0 0.2267941627453715 2.100001420088858 1 0 0 0.05449421096646356
306 2 0 0.1834935229709174 2.075000236681488 1 0 0 0.049403476914736
307 2 0 0.2267947721463132 2.050000276128395 1 0 0 0.0726563609126752
308 2 0 0.1834936324613214 2.025000031147356 1 0 0 0.05780829985514795
309 2 0 0.2267948919615367 2.00000005121263 1 0 0 0.05458845592619432
310 2 0 0.1834936417415176 1.975000013726671 1 0 0 0.04833461515459825
311 2 0 0.2267949134774392 1.950000010823224 1 0 0 0.05404674940374068
312 2 0 0.183493648486483 1.925000001065101 1 0 0 0.05601843383484199
313 2 0 0.226794918187583 1.900000001981395 1 0 0 0.06710492523784964
314 2 0 0.1834936487833844 1.875000000507758 1 0 0 0.06845854532827082
315 2 0 0.2267949190220911 1.850000000414866 1 0 0 0.04445787351389505
316 2 0 0.1834936490325454 1.825000000040039 1 0 0 0.04765192334945041
317 2 0 0.2267949192027025 1.800000000075826 1 0 0 0.1192093208724899
318 2 0 0.1834936490435813 1.775000000019319 1 0 0 0.0346364378249622
319 2 0 0.2267949192346436 1.750000000015865 1 0 0 0.05619147301528743
320 2 0 0.1834936490538655 1.725000000000013 1 0 0 0.05190978948964026
321 2 0 0.2267949192416795 1.700000000002653 1 0 0 0.07667457630730037
322 2 0 0.1834936490536297 1.675000000000454 1 0 0 0.04652016112710408
323 2 0 0.2267949192428105 1.650000000000524 1 0 0 0.0958758670391297
324 2 0 0.1834936490538303 1.625000000000071 1 0 0 0.0417248332375689
325 2 0 0.2267949192430307 1.600000000000105 1 0 0 0.04361359357554352
326 2 0 0.1834936490538482 1.575000000000032 1 0 0 0.03573644161132496
327 2 0 0.2267949192430677 1.550000000000029 1 0 0 0.1134540123627193
328 2 0 0.1834936490538526 1.525000000000016 1 0 0 0.0655756588718021
329 2 0 0.2267949192430709 1.500000000000014 1 0 0 0.06362810027228137
330 2 0 0.1834936490538489 1.475000000000015 1 0 0 0.04068098698792432
331 2 0 0.2267949192430679 1.450000000000012 1 0 0 0.06605956264228491
332 2 0 0.1834936490538439 1.425000000000016 1 0 0 0.07039577818513318
333 2 0 0.2267949192430647 1.400000000000012 1 0 0 0.04357150349279176
334 2 0 0.1834936490538381 1.375000000000016 1 0 0 0.08763877489552173
335 2 0 0.2267949192430607 1.350000000000011 1 0 0 0.09399399654524498
336 2 0 0.1834936490538366 1.325000000000015 1 0 0 0.04151168299784242
337 2 0 0.2267949192430566 1.300000000000011 1 0 0 0.06532613040773533
338 2 0 0.1834936490538333 1.275000000000014 1 0 0 0.06956173523246136
339 2 0 0.2267949192430631 1.25000000000001 1 0 0 0.07718661360016724
340 2 0 0.1834936490538316 1.225000000000013 1 0 0 0.06137713828467036
341 2 0 0.2267949192430615 1.200000000000009 1 0 0 0.07521787736699548
342 2 0 0.1834936490538287 1.175000000000014 1 0 0 0.04473977872415276
343 2 0 0.2267949192430468 1.150000000000012 1 0 0 0.05042183711273061
344 2 0 0.1834936490538239 1.125000000000014 1 0 0 0.05084523710454354
345 2 0 0.226794919243044 1.100000000000012 1 0 0 0.0592876827477072
346 2 0 0.183493649053821 1.075000000000014 1 0 0 0.06648974376481723
347 2 0 0.2267949192430412 1.050000000000012 1 0 0 0.04240230208181956
348 2 0 0.1863129480271382 1.025000000000014 1 0 0 0.05812471133640598
349 2 0 0.227264802405259 1.000000000000012 1 0 0 0.09690444364526937
350 2 0 0.181520241138179 0.9742034452468248 1 0 0 0.0681287419914719
351 2 0 0.2265443317841337 0.9498672408744806 1 0 0 0.04290241678745021
352 2 0 0.1841746008094157 0.9230236591512702 1 0 0 0.05979374943511625
353 2 0 0.2268666466258169 0.8996484833376328 1 0 0 0.05622853407691428
354 2 0 0.1836190955768746 0.8746120237481603 1 0 0 0.06500201208363195
355 2 0 0.2267949192430308 0.8500000000000119 1 0 0 0.03274082459172139
356 2 0 0.1835145568076516 0.8249353372913719 1 0 0 0.05240077194025659
357 2 0 0.2267984038686687 0.7999892228819048 1 0 0 0.05792788323384815
358 2 0 0.1834977144503855 0.7749874266955562 1 0 0 0.05673843522944819
359 2 0 0.2267949192430253 0.7500000000000119 1 0 0 0.1056365167080964
360 2 0 0.1834943266198989 0.7249979044492711 1 0 0 0.03558622234014548
361 2 0 0.2267950321707187 0.6999996507415595 1 0 0 0.05357933857122386
362 2 0 0.1834937808027651 0.674999592531815 1 0 0 0.03485140477087191
363 2 0 0.2267949192430204 0.650000000000012 1 0 0 0.1037237151385696
364 2 0 0.1834936710119581 0.6249999320886473 1 0 0 0.04263870391858014
365 2 0 0.2267949229027254 0.5999999886814492 1 0 0 0.07235757034962675
366 2 0 0.1834936533234394 0.5749999867950257 1 0 0 0.03999398815772921
367 2 0 0.2267949192430155 0.5500000000000119 1 0 0 0.08332862951061037
368 2 0 0.1863129487387218 0.5249999977991825 1 0 0 0.05329006217983952
369 2 0 0.227264802523834 0.4999999996332058 1 0 0 0.04735830055286994
370 2 0 0.1815202411986671 0.4742034450596787 1 0 0 0.05505183206792488
371 2 0 0.2265443318139772 0.4498672407821534 1 0 0 0.1177180231923476
372 2 0 0.1841746008244541 0.4230236591046903 1 0 0 0.04570217067485609
373 2 0 0.2268666466333152 0.3996484833144792 1 0 0 0.03631489288640666
374 2 0 0.1836190955806133 0.374612023736538 1 0 0 0.03474642512049617
375 2 0 0.2267949192430048 0.3500000000000118 1 0 0 0.0713756457718332
376 2 0 0.183514556808253 0.3249353372894348 1 0 0 0.04920784544392426
377 2 0 0.2267984038687473 0.2999892228815818 1 0 0 0.07055577968207222
378 2 0 0.1834977144504815 0.2749874266951792 1 0 0 0.04895294393569982
379 2 0 0.2267949192429993 0.2500000000000118 1 0 0 0.08010051392392399
380 2 0 0.1834943266198931 0.2249979044492083 1 0 0 0.05033892295110655
381 2 0 0.2267950321707013 0.1999996507415441 1 0 0 0.0755121177232356
382 2 0 0.1834937808027435 0.1749995925318019 1 0 0 0.09293708720130534
383 2 0 0.1401923788646572 2.150000000000015 1 0 0 0.04945355763221806
384 2 0 0.1401923748804962 2.000000007479016 1 0 0 0.06610200356732253
385 2 0 0.1401923788646245 1.450000000000021 1 0 0 0.06343190622359389
386 2 0 0.1401923788646118 1.300000000000016 1 0 0 0.05579157968926458
387 2 0 0.1401923788645977 1.050000000000016 1 0 0 0.04841459250132017
388 2 0 0.1468122727288146 0.8977844919476201 1 0 0 0.06190825462244256
389 2 0 0.1405554734506249 0.5495935939408001 1 0 0 0.05884208065085624
390 2 0 0.1367542188188623 0.3965397457733971 1 0 0 0.07045896559871717
391 2 0 0.1401931693583587 0.249997555190743 1 0 0 0.05822686071521849
392 2 0 0.2267949192429937 0.1500000000000118 1 0 0 0.06589449459962249
393 2 0 0.2700967702032375 0.3249982038136019 1 0 0 0.05505832270281587
394 2 0 0.270096208253542 0.2249999417902636 1 0 0 0.0481375112816123
395 2 0 0.2701327387409151 0.4749778734025608 1 0 0 0.03607540555527677
396 2 0 0.2700961900422514 0.6249999981135819 1 0 0 0.05430329235283154
397 2 0 0.2700967702031873 0.7749982038136599 1 0 0 0.04499615792519104
398 2 0 0.2700961894322889 1.125000000000007 1 0 0 0.05520213881765206
399 2 0 0.2700663794195706 0.9249192873686913 1 0 0 0.04083590301700737
400 2 0 0.2701745032926441 1.025000000000008 1 0 0 0.03703977545701235
401 2 0 0.2700961894322846 1.275000000000007 1 0 0 0.05632178271363605
402 2 0 0.2700961894322881 1.425000000000009 1 0 0 0.05184452832310345
403 2 0 0.2700961894323023 1.525000000000009 1 0 0 0.04647088982918762
404 2 0 0.2700961894320271 1.675000000000532 1 0 0 0.05503775364649969
405 2 0 0.2700961893887469 1.825000000081791 1 0 0 0.0421836312930068
406 2 0 0.2700960388332332 2.075000282702872 1 0 0 0.03209618129111396
407 2 0 0.2700961839244462 1.975000010339309 1 0 0 0.06102523133365113
408 2 0 0.1379493918439644 1.850796554793123 1 0 0 0.07902821687468302
409 2 0 0.1430116778362443 1.75000000000323 1 0 0 0.07345190192794759
410 2 0 0.1379493918652102 1.650796554753237 1 0 0 0.06217187639684273
411 2 0 0.1379493918652228 1.549203445246829 1 0 0 0.04913787464993289
412 2 0 0.1401923788646029 1.150000000000017 1 0 0 0.0724952763345266
413 2 0 0.1401931693583611 0.7499975551908166 1 0 0 0.04181635172241966
414 2 0 0.1401924044824307 0.6499999207700884 1 0 0 0.03439946198244107
415 2 0 0.1842842534864516 0.1263692611020863 1 0 0 0.04006237140099229
416 2 0 0.1403241682281585 0.1502281422723265 1 0 0 0.07686821451338179
417 2 0 0.184279884746674 2.273638830715347 1 0 0 0.03526464889679544
418 2 0 0.140322264918987 2.249775303278568 1 0 0 0.08594211115906879
419 2 0 0.2265807746894472 0.1019314017759688 1 0 0 0.05146024350481617
420 2 0 0.2692231574470035 0.1267722178433023 1 0 0 0.05810401380415065
421 2 0 0.1437345135359454 0.09335273682622107 1 0 0 0.08679765949206424
422 2 0 0.09689110867532663 0.1250000000000189 1 0 0 0.03111670521485405
423 2 0 0.1437336175290061 2.306648911369271 1 0 0 0.07133652516428783
424 2 0 0.0968911086754438 2.275000000000011 1 0 0 0.04764378586609379
425 2 0 0.09816370515223805 2.223292859615959 1 0 0 0.09706936871752017
426 2 0 0.09689110867532938 0.1750000000000189 1 0 0 0.04453167162418654
427 2 0 0.270095281751795 2.125001703887476 1 0 0 0.05677576062900205
428 2 0 0.3133972832416114 2.100000331098392 1 0 0 0.07789649166386535
429 2 0 0.3566987004141199 2.125000055183068 1 0 0 0.07040015956029759
430 2 0 0.3133974051250466 2.050000102300207 1 0 0 0.09052812204902333
431 2 0 0.1401923544213715 2.050000045884651 1 0 0 0.0666000687651109
432 2 0 0.09794272158888018 2.023178553691671 1 0 0 0.03484007875733648
433 2 0 0.09988567580361959 1.974696426861794 1 0 0 0.08435203818486291
434 2 0 0.09689110867542541 2.075000000000017 1 0 0 0.05573893242890143
435 2 0 0.05358983848620286 2.000000000000029 1 0 0 0.07054750082330807
436 2 0 0.1401923788646167 1.400000000000023 1 0 0 0.07061105549292088
437 2 0 0.09971040764871709 1.425000000000029 1 0 0 0.0451751096168374
438 2 0 0.09689110867540673 1.475000000000029 1 0 0 0.03703250726612512
439 2 0 0.09848119642759057 1.375000000000029 1 0 0 0.03066107775155526
440 2 0 0.05358983848618055 1.450000000000034 1 0 0 0.03768308659173168
441 2 0 0.140691471408694 1.949949408188769 1 0 0 0.07227552020033984
442 2 0 0.1040271199208567 1.926762427710723 1 0 0 0.04918151840959134
443 2 0 0.2265768530123028 2.298075941763056 1 0 0 0.0345649079998374
444 2 0 0.2700723945180433 2.175044667540003 1 0 0 0.04643889076112663
445 2 0 0.0426234837044339 2.173045785672187 1 0 0 0.04277317102580947
446 2 0 0.2700961894306216 1.725000000003178 1 0 0 0.04571771363637433
447 2 0 0.3133974596212066 1.70000000000062 1 0 0 0.0534281239382845
448 2 0 0.3133974596214402 1.650000000000192 1 0 0 0.06972438173420739
449 2 0 0.3133974596211995 1.750000000000639 1 0 0 0.08298864956150381
450 2 0 0.2700961894165747 1.775000000029552 1 0 0 0.04061434080892425
451 2 0 0.3133974596115957 1.800000000018669 1 0 0 0.06170219436047591
452 2 0 0.3133974596126141 1.850000000016751 1 0 0 0.07446524177815507
453 2 0 0.3566987298107546 1.825000000000015 1 0 0 0.0607734914192271
454 2 0 0.1404573934899803 1.350000000000019 1 0 0 0.04534296473096674
455 2 0 0.1000195913783024 1.325000000000017 1 0 0 0.09516954492941229
456 2 0 0.09689110867539411 1.275000000000013 1 0 0 0.05540839455324363
457 2 0 0.05445147730093787 1.302169235040963 1 0 0 0.03205051414069841
458 2 0 0.356698686431926 2.075000081430277 1 0 0 0.04462597199241783
459 2 0 0.3133974496208146 2.000000018773252 1 0 0 0.04989830183761815
460 2 0 0.3566987298107543 1.725000000000004 1 0 0 0.04668305696972117
461 2 0 0.2700961894322845 1.375000000000008 1 0 0 0.05725237873474454
462 2 0 0.3133974596215198 1.400000000000005 1 0 0 0.05480831119004004
463 2 0 0.313397459621512 1.350000000000002 1 0 0 0.06954872437135214
464 2 0 0.3566987298107439 1.324999999999996 1 0 0 0.07666411910200521
465 2 0 0.3133974596215232 1.450000000000006 1 0 0 0.054467858824062
466 2 0 0.3133933082263141 2.150007792951491 1 0 0 0.05687992945951022
467 2 0 0.3566987298106954 1.675000000000137 1 0 0 0.07877455830676021
468 2 0 0.313397459621519 1.600000000000034 1 0 0 0.08420557027806
469 2 0 0.27009618943229 1.575000000000029 1 0 0 0.05827971471081465
470 2 0 0.2700961894322836 1.325000000000007 1 0 0 0.04896245166751658
471 2 0 0.2700961894322542 0.8750000000000097 1 0 0 0.0665131126346802
472 2 0 0.3133924912860393 0.8999865478947863 1 0 0 0.0499787297274662
473 2 0 0.3133966315655785 0.8499977579824662 1 0 0 0.06212354391101469
474 2 0 0.3566985918014149 0.8249996263304116 1 0 0 0.05116049981986778
475 2 0 0.3133916632301331 0.9499843058772491 1 0 0 0.07038864604863738