ITEM: TIMESTEP
0
ITEM: NUMBER OF ATOMS
10710
ITEM: BOX BOUNDS ff ff ff
-2.0 27.805191581131574
-2.000004903033104 3.21
-2.24472608606245 2.2452747668197452
ITEM: ATOMS id type x y z q
1 2 0.00000000 0.00000000 0.24527477 3.35542180e-03
2 2 0.00000000 0.00000000 -0.24472523 -3.35542180e-03
3 2 0.00000000 1.21000000 0.24527477 3.41686920e-03
4 2 0.00000000 1.21000000 -0.24472523 -3.41686920e-03
5 1 25.80519016 -0.00000484 0.24527373 3.37776783e-03
6 1 25.80518999 -0.00000477 -0.24472599 -3.37776783e-03
7 1 25.80518970 1.20999471 0.24527377 3.41686920e-03
8 1 25.80518952 1.20999472 -0.24472592 -3.41686920e-03
9 2 0.00000000 0.00000000 -0.12222523 0.00000000e+00
10 2 0.00000000 0.00000000 0.00027477 0.00000000e+00
11 2 0.00000000 0.00000000 0.12277477 0.00000000e+00
12 2 0.00000000 0.12100000 0.24527477 5.18139194e-03
13 2 0.00000000 0.24200000 0.24527477 5.50362000e-03
14 2 0.00000000 0.36300000 0.24527477 5.01501884e-03
15 2 0.00000000 0.48400000 0.24527477 5.50904170e-03
16 2 0.00000000 0.60500000 0.24527477 6.02408537e-03
17 2 0.00000000 0.72600000 0.24527477 6.86123120e-03
18 2 0.00000000 0.84700000 0.24527477 6.83241897e-03
19 2 0.00000000 0.96800000 0.24527477 5.84994208e-03
20 2 0.00000000 1.08900000 0.24527477 4.96878236e-03
21 2 0.00000000 1.21000000 -0.12222523 0.00000000e+00
22 2 0.00000000 1.21000000 0.00027477 0.00000000e+00
23 2 0.00000000 1.21000000 0.12277477 0.00000000e+00
24 2 0.00000000 0.12100000 -0.24472523 -5.18139194e-03
25 2 0.00000000 0.24200000 -0.24472523 -5.50362000e-03
26 2 0.00000000 0.36300000 -0.24472523 -5.01501884e-03
27 2 0.00000000 0.48400000 -0.24472523 -5.50904170e-03
28 2 0.00000000 0.60500000 -0.24472523 -6.02408537e-03
29 2 0.00000000 0.72600000 -0.24472523 -6.86123120e-03
30 2 0.00000000 0.84700000 -0.24472523 -6.83241897e-03
31 2 0.00000000 0.96800000 -0.24472523 -5.84994208e-03
32 2 0.00000000 1.08900000 -0.24472523 -4.96878236e-03
33 1 25.80519014 -0.00000482 -0.12222610 0.00000000e+00
34 1 25.80519025 -0.00000484 0.00027385 0.00000000e+00
35 1 25.80519021 -0.00000490 0.12277383 0.00000000e+00
36 1 25.80519056 0.12099504 0.24527379 5.05002864e-03
37 1 25.80519106 0.24199495 0.24527377 5.64089052e-03
38 1 25.80519132 0.36299494 0.24527379 5.44128437e-03
39 1 25.80519151 0.48399501 0.24527371 6.40224548e-03
40 1 25.80519136 0.60499493 0.24527380 6.88148315e-03
41 1 25.80519134 0.72599484 0.24527392 6.11583422e-03
42 1 25.80519107 0.84699482 0.24527379 5.69198232e-03
43 1 25.80519067 0.96799483 0.24527384 6.01735171e-03
44 1 25.80519011 1.08899479 0.24527384 5.43527194e-03
45 1 25.80518971 1.20999468 -0.12222605 0.00000000e+00
46 1 25.80518970 1.20999465 0.00027392 0.00000000e+00
47 1 25.80518970 1.20999471 0.12277384 0.00000000e+00
48 1 25.80519039 0.12099510 -0.24472609 -5.05002864e-03
49 1 25.80519092 0.24199509 -0.24472596 -5.64089052e-03
50 1 25.80519117 0.36299502 -0.24472603 -5.44128437e-03
51 1 25.80519125 0.48399505 -0.24472600 -6.40224548e-03
52 1 25.80519123 0.60499497 -0.24472596 -6.88148315e-03
53 1 25.80519133 0.72599495 -0.24472592 -6.11583422e-03
54 1 25.80519089 0.84699488 -0.24472598 -5.69198232e-03
55 1 25.80519053 0.96799478 -0.24472601 -6.01735171e-03
56 1 25.80518995 1.08899475 -0.24472601 -5.43527194e-03
57 1 0.12230996 0.00004557 -0.24470428 -4.80862070e-03
58 1 0.24461598 0.00008994 -0.24468899 -5.62714142e-03
59 1 0.36692937 0.00011124 -0.24468117 -6.00619986e-03
60 1 0.48924266 0.00012531 -0.24468302 -6.09052560e-03
61 1 0.61155969 0.00013327 -0.24468284 -6.09206826e-03
62 1 0.73387992 0.00013385 -0.24469224 -5.94781856e-03
63 1 0.85620364 0.00013445 -0.24469403 -5.82025544e-03
64 1 0.97852335 0.00013192 -0.24468770 -5.95871849e-03
65 1 1.10084385 0.00013368 -0.24468565 -6.09232315e-03
66 1 1.22316178 0.00013223 -0.24468926 -6.09205550e-03
67 1 1.34547612 0.00012752 -0.24469559 -6.08598370e-03
68 1 1.46779699 0.00012626 -0.24469852 -6.07933546e-03
69 1 1.59012007 0.00012255 -0.24470565 -6.08488133e-03
70 1 1.71244009 0.00012316 -0.24470138 -6.08161608e-03
71 1 1.83476317 0.00012465 -0.24470401 -6.08881076e-03
72 1 1.95708296 0.00012323 -0.24470294 -6.09207793e-03
73 1 2.07940295 0.00011803 -0.24469902 -6.09206431e-03
74 1 2.20172638 0.00011798 -0.24469707 -6.09206920e-03
75 1 2.32404748 0.00011591 -0.24469374 -6.09206749e-03
76 1 2.44636621 0.00011894 -0.24469461 -6.09206826e-03
77 1 2.56868488 0.00011601 -0.24469774 -6.09206901e-03
78 1 2.69100817 0.00010927 -0.24469960 -6.08547783e-03
79 1 2.81333391 0.00010880 -0.24470205 -6.07797420e-03
80 1 2.93565328 0.00011143 -0.24469656 -6.08460882e-03
81 1 3.05797346 0.00011256 -0.24469320 -6.08123045e-03
82 1 3.18029179 0.00011092 -0.24469767 -6.08867780e-03
83 1 3.30261119 0.00010832 -0.24470070 -6.09206866e-03
84 1 3.42492697 0.00010875 -0.24470095 -6.09206839e-03
85 1 3.54724374 0.00010648 -0.24469834 -6.09206833e-03
86 1 3.66955960 0.00010212 -0.24469751 -6.09206826e-03
87 1 3.79188084 0.00009664 -0.24470030 -6.09206824e-03
88 1 3.91419721 0.00009635 -0.24470055 -6.09206825e-03
89 1 4.03651717 0.00009891 -0.24470091 -6.10477040e-03
90 1 4.15883532 0.00010479 -0.24470470 -6.10144793e-03
91 1 4.28115179 0.00010926 -0.24470639 -6.09206826e-03
92 1 4.40346973 0.00011073 -0.24470602 -6.08473760e-03
93 1 4.52578845 0.00010620 -0.24470922 -6.07718969e-03
94 1 4.64810239 0.00010772 -0.24470684 -6.08430762e-03
95 1 4.77042013 0.00010763 -0.24470470 -6.08084602e-03
96 1 4.89274048 0.00010659 -0.24469943 -6.08857506e-03
97 1 5.01505660 0.00010077 -0.24469807 -6.09439460e-03
98 1 5.13737372 0.00009925 -0.24469392 -6.09360296e-03
99 1 5.25969271 0.00009764 -0.24468852 -6.10212083e-03
100 1 5.38200689 0.00009437 -0.24468498 -6.09455787e-03
101 1 5.50431906 0.00009616 -0.24468775 -6.08457013e-03
102 1 5.62662863 0.00010159 -0.24469074 -6.08334006e-03
103 1 5.74894363 0.00010288 -0.24469380 -6.09025173e-03
104 1 5.87125516 0.00010284 -0.24469335 -6.09206826e-03
105 1 5.99356926 0.00010495 -0.24469212 -6.09206826e-03
106 1 6.11588250 0.00010243 -0.24468979 -6.08838437e-03
107 1 6.23819384 0.00010150 -0.24468481 -6.09329454e-03
108 1 6.36050350 0.00009929 -0.24468319 -6.09400483e-03
109 1 6.48281885 0.00009869 -0.24468364 -6.08872179e-03
110 1 6.60512931 0.00009362 -0.24468168 -6.08812243e-03
111 1 6.72743796 0.00009586 -0.24468428 -6.09206826e-03
112 1 6.84975042 0.00010078 -0.24468954 -6.09206826e-03
113 1 6.97206144 0.00009893 -0.24469024 -6.09206826e-03
114 1 7.09437269 0.00010055 -0.24468827 -6.06302327e-03
115 1 7.21668354 0.00009980 -0.24468613 -6.06302327e-03
116 1 7.33899534 0.00009637 -0.24468211 -5.90236529e-03
117 1 7.46130327 0.00009757 -0.24467961 -5.81608564e-03
118 1 7.58361189 0.00009372 -0.24468298 -6.10035823e-03
119 1 7.70592375 0.00009401 -0.24468689 -5.08741334e-03
120 1 7.82823461 0.00009693 -0.24469267 -6.87719096e-03
121 1 7.95054384 0.00010468 -0.24469801 -5.18694999e-03
122 1 8.07285654 0.00009967 -0.24470153 -5.00655937e-03
123 1 8.19516911 0.00009663 -0.24469228 -7.17602109e-03
124 1 8.31747622 0.00009825 -0.24469259 -5.64123658e-03
125 1 8.43978365 0.00010101 -0.24469745 -5.91249038e-03
126 1 8.56208564 0.00010110 -0.24469646 -5.77202514e-03
127 1 8.68438976 0.00010469 -0.24469676 -5.95689302e-03
128 1 8.80669688 0.00010272 -0.24469874 -6.09206826e-03
129 1 8.92900850 0.00010102 -0.24470111 -6.09206826e-03
130 1 9.05131808 0.00010079 -0.24469983 -6.09206826e-03
131 1 9.17362438 0.00010148 -0.24469753 -6.00199927e-03
132 1 9.29592960 0.00010388 -0.24469750 -6.06987486e-03
133 1 9.41823657 0.00010289 -0.24469458 -5.02835518e-03
134 1 9.54054133 0.00010378 -0.24469207 -6.79157831e-03
135 1 9.66284513 0.00010797 -0.24469824 -4.92113473e-03
136 1 9.78515431 0.00010677 -0.24469700 -5.56259368e-03
137 1 9.90746058 0.00010209 -0.24469457 -5.94323360e-03
138 1 10.02976744 0.00009798 -0.24469310 -5.00637084e-03
139 1 10.15206857 0.00009362 -0.24469344 -6.75640181e-03
140 1 10.27437439 0.00009441 -0.24470014 -4.91035923e-03
141 1 10.39667832 0.00009332 -0.24469935 -5.75765677e-03
142 1 10.51898244 0.00008861 -0.24469664 -6.37465021e-03
143 1 10.64128630 0.00008497 -0.24469740 -6.33172667e-03
144 1 10.76359046 0.00008249 -0.24469879 -5.77695765e-03
145 1 10.88589455 0.00008269 -0.24469993 -5.75602868e-03
146 1 11.00819686 0.00008202 -0.24469879 -5.94989338e-03
147 1 11.13049930 0.00007985 -0.24469792 -6.09206826e-03
148 1 11.25280155 0.00007735 -0.24469951 -6.09206826e-03
149 1 11.37510542 0.00007447 -0.24469683 -6.49862787e-03
150 1 11.49740864 0.00007516 -0.24469823 -6.47806478e-03
151 1 11.61971202 0.00007596 -0.24469591 -5.98398651e-03
152 1 11.74201481 0.00007710 -0.24469891 -5.97118729e-03
153 1 11.86431884 0.00007444 -0.24470453 -6.32827249e-03
154 1 11.98662161 0.00007533 -0.24470385 -6.38296841e-03
155 1 12.10892485 0.00007346 -0.24470500 -6.09206826e-03
156 1 12.23122663 0.00007153 -0.24470398 -5.92176613e-03
157 1 12.35352886 0.00007263 -0.24470732 -5.84196899e-03
158 1 12.47582805 0.00007235 -0.24470748 -5.89327746e-03
159 1 12.59812864 0.00007162 -0.24470507 -4.96011300e-03
160 1 12.72042664 0.00006868 -0.24470028 -6.65158567e-03
161 1 12.84272568 0.00007184 -0.24469915 -4.90989307e-03
162 1 12.96502753 0.00007136 -0.24469965 -5.52395043e-03
163 1 13.08732721 0.00006786 -0.24470247 -5.87068470e-03
164 1 13.20962376 0.00006760 -0.24470361 -4.88602194e-03
165 1 13.33192184 0.00006831 -0.24470501 -6.40279006e-03
166 1 13.45422041 0.00006696 -0.24470518 -5.12407601e-03
167 1 13.57651857 0.00006652 -0.24470525 -4.88216806e-03
168 1 13.69881665 0.00006318 -0.24470383 -6.38017819e-03
169 1 13.82111403 0.00006466 -0.24470551 -5.11373203e-03
170 1 13.94341149 0.00006477 -0.24470785 -4.85398664e-03
171 1 14.06571143 0.00006416 -0.24470783 -6.35577596e-03
172 1 14.18800740 0.00006732 -0.24470987 -5.10698016e-03
173 1 14.31030625 0.00006603 -0.24471302 -4.85870271e-03
174 1 14.43260342 0.00006616 -0.24471223 -6.37702085e-03
175 1 14.55490119 0.00006269 -0.24471064 -5.10092274e-03
176 1 14.67719818 0.00006215 -0.24470997 -4.84968636e-03
177 1 14.79949218 0.00005968 -0.24470683 -6.37599125e-03
178 1 14.92178573 0.00006067 -0.24470518 -4.87710407e-03
179 1 15.04407953 0.00006177 -0.24470554 -5.56677439e-03
180 1 15.16637797 0.00006082 -0.24470490 -5.93477518e-03
181 1 15.28867393 0.00005883 -0.24470369 -6.09206826e-03
182 1 15.41097013 0.00005762 -0.24470161 -6.09206826e-03
183 1 15.53326381 0.00005464 -0.24470104 -5.98211588e-03
184 1 15.65555919 0.00005309 -0.24470155 -5.88223740e-03
185 1 15.77785638 0.00005398 -0.24469997 -5.93479953e-03
186 1 15.90015100 0.00005514 -0.24470088 -4.77734034e-03
187 1 16.02244560 0.00005435 -0.24470013 -6.31776323e-03
188 1 16.14473783 0.00005442 -0.24470220 -4.85845554e-03
189 1 16.26702924 0.00005184 -0.24470490 -5.48045656e-03
190 1 16.38932163 0.00005138 -0.24470625 -5.74774533e-03
191 1 16.51161437 0.00005168 -0.24470764 -5.91938606e-03
192 1 16.63390747 0.00005229 -0.24470852 -4.72601755e-03
193 1 16.75620045 0.00005284 -0.24470884 -6.44309587e-03
194 1 16.87849362 0.00005337 -0.24471047 -5.21392668e-03
195 1 17.00078642 0.00005293 -0.24471324 -4.32492230e-03
196 1 17.12307700 0.00004925 -0.24471324 -6.11554878e-03
197 1 17.24536822 0.00004739 -0.24471377 -5.20526136e-03
198 1 17.36766025 0.00004623 -0.24471616 -4.31230685e-03
199 1 17.48995013 0.00004265 -0.24471591 -6.11716232e-03
200 1 17.61224094 0.00004312 -0.24471490 -5.69773107e-03
201 1 17.73453228 0.00004311 -0.24471401 -5.99314584e-03
202 1 17.85682202 0.00004230 -0.24471600 -4.76350900e-03
203 1 17.97911069 0.00004434 -0.24471771 -5.21120302e-03
204 1 18.10140080 0.00004450 -0.24471738 -6.01204532e-03
205 1 18.22369023 0.00004344 -0.24471732 -5.73233737e-03
206 1 18.34598199 0.00003837 -0.24471769 -5.81943467e-03
207 1 18.46827142 0.00003966 -0.24471620 -6.32655047e-03
208 1 18.59056001 0.00003741 -0.24471689 -5.03614005e-03
209 1 18.71284778 0.00003557 -0.24471703 -4.70280803e-03
210 1 18.83513773 0.00003368 -0.24471437 -8.65683464e-03
211 1 18.95742576 0.00003421 -0.24471191 -5.94692004e-03
212 1 19.07971350 0.00003609 -0.24471418 -5.65885778e-03
213 1 19.20200187 0.00003630 -0.24471401 -5.99277035e-03
214 1 19.32428998 0.00003537 -0.24471579 -6.04066598e-03
215 1 19.44657625 0.00003549 -0.24471741 -6.09206826e-03
216 1 19.56886349 0.00003425 -0.24471770 -6.09206826e-03
217 1 19.69115023 0.00003308 -0.24471708 -6.09206826e-03
218 1 19.81343676 0.00003181 -0.24471691 -5.94140402e-03
219 1 19.93572353 0.00003170 -0.24471702 -6.09135703e-03
220 1 20.05800940 0.00003077 -0.24471701 -6.09135703e-03
221 1 20.18029658 0.00002827 -0.24471692 -6.09206826e-03
222 1 20.30258200 0.00002787 -0.24471659 -6.22362401e-03
223 1 20.42486675 0.00002785 -0.24471818 -6.30618064e-03
224 1 20.54715193 0.00002763 -0.24471809 -6.16079228e-03
225 1 20.66943647 0.00002667 -0.24471782 -6.90076158e-03
226 1 20.79172147 0.00002525 -0.24471632 -7.19612184e-03
227 1 20.91400618 0.00002347 -0.24471612 -6.17999120e-03
228 1 21.03629006 0.00002227 -0.24471542 -5.85545161e-03
229 1 21.15857385 0.00002162 -0.24471651 -6.04373412e-03
230 1 21.28085778 0.00002029 -0.24471659 -6.05837687e-03
231 1 21.40314089 0.00001935 -0.24471769 -6.22625934e-03
232 1 21.52542409 0.00001757 -0.24471819 -6.96326852e-03
233 1 21.64770726 0.00001678 -0.24471875 -6.60839364e-03
234 1 21.76998962 0.00001642 -0.24471886 -6.08325267e-03
235 1 21.89227220 0.00001629 -0.24471877 -5.98999100e-03
236 1 22.01455451 0.00001573 -0.24471912 -6.02220795e-03
237 1 22.13683674 0.00001442 -0.24471944 -5.94934321e-03
238 1 22.25911948 0.00001363 -0.24471911 -6.23085673e-03
239 1 22.38140162 0.00001290 -0.24471797 -5.91383044e-03
240 1 22.50368302 0.00001209 -0.24471869 -5.82022831e-03
241 1 22.62596341 0.00001110 -0.24471883 -6.06616825e-03
242 1 22.74824391 0.00000991 -0.24471896 -6.09206826e-03
243 1 22.87052432 0.00000901 -0.24471937 -6.22108889e-03
244 1 22.99280492 0.00000912 -0.24471978 -6.93510095e-03
245 1 23.11508497 0.00000905 -0.24471930 -6.55067958e-03
246 1 23.23736521 0.00000917 -0.24472001 -5.44215936e-03
247 1 23.35964495 0.00000857 -0.24472017 -5.52453627e-03
248 1 23.48192450 0.00000763 -0.24472056 -6.11677386e-03
249 1 23.60420352 0.00000675 -0.24472104 -5.40422112e-03
250 1 23.72648244 0.00000576 -0.24472157 -5.51625079e-03
251 1 23.84876121 0.00000535 -0.24472146 -6.10817079e-03
252 1 23.97103966 0.00000424 -0.24472174 -5.39058303e-03
253 1 24.09331750 0.00000369 -0.24472201 -5.51111698e-03
254 1 24.21559560 0.00000280 -0.24472217 -6.09959331e-03
255 1 24.33787364 0.00000197 -0.24472278 -5.37708140e-03
256 1 24.46015127 0.00000188 -0.24472321 -5.50601994e-03
257 1 24.58242885 0.00000115 -0.24472343 -6.09132348e-03
258 1 24.70470609 0.00000072 -0.24472386 -5.36406280e-03
259 1 24.82698321 0.00000027 -0.24472417 -5.50114066e-03
260 1 24.94925987 -0.00000055 -0.24472443 -6.07613573e-03
261 1 25.07153642 -0.00000117 -0.24472459 -5.86576563e-03
262 1 25.19381238 -0.00000206 -0.24472468 -5.87763703e-03
263 1 25.31608856 -0.00000286 -0.24472503 -5.79509293e-03
264 1 25.43836411 -0.00000336 -0.24472514 -6.45795830e-03
265 1 25.56063958 -0.00000394 -0.24472539 -6.36067877e-03
266 1 25.68291483 -0.00000440 -0.24472577 -5.01672083e-03
267 1 0.12230560 0.00004328 0.24525140 4.80862070e-03
268 1 0.24461403 0.00008556 0.24523570 5.62714142e-03
269 1 0.36693095 0.00010401 0.24522843 6.00619986e-03
270 1 0.48924973 0.00011862 0.24522815 6.09052560e-03
271 1 0.61157109 0.00013527 0.24521651 6.09206826e-03
272 1 0.73388552 0.00013435 0.24521887 5.94781856e-03
273 1 0.85620253 0.00013443 0.24521840 5.82025544e-03
274 1 0.97852522 0.00012513 0.24521323 5.95871849e-03
275 1 1.10084683 0.00012277 0.24520956 6.09232315e-03
276 1 1.22316852 0.00012296 0.24520845 6.09205550e-03
277 1 1.34548585 0.00012043 0.24520444 6.08598370e-03
278 1 1.46780492 0.00012159 0.24520043 6.07933546e-03
279 1 1.59012463 0.00012208 0.24520216 6.08488133e-03
280 1 1.71244792 0.00012767 0.24519452 6.08161608e-03
281 1 1.83476470 0.00012398 0.24519393 6.08881076e-03
282 1 1.95708641 0.00012659 0.24519624 6.09207793e-03
283 1 2.07940777 0.00012094 0.24519941 6.09206431e-03
284 1 2.20172686 0.00011029 0.24520288 6.09206920e-03
285 1 2.32404738 0.00010915 0.24520683 6.09206749e-03
286 1 2.44637179 0.00010909 0.24520409 6.09206826e-03
287 1 2.56869367 0.00010769 0.24520505 6.09206901e-03
288 1 2.69100951 0.00011526 0.24520332 6.08547783e-03
289 1 2.81332990 0.00012009 0.24520245 6.07797420e-03
290 1 2.93565220 0.00011404 0.24520945 6.08460882e-03
291 1 3.05796875 0.00010882 0.24521106 6.08123045e-03
292 1 3.18028797 0.00010782 0.24520838 6.08867780e-03
293 1 3.30260506 0.00010824 0.24520703 6.09206866e-03
294 1 3.42492272 0.00010579 0.24521239 6.09206839e-03
295 1 3.54723968 0.00010377 0.24520761 6.09206833e-03
296 1 3.66955771 0.00009995 0.24520123 6.09206826e-03
297 1 3.79187508 0.00009450 0.24520485 6.09206824e-03
298 1 3.91419044 0.00009692 0.24520162 6.09206825e-03
299 1 4.03651300 0.00009990 0.24520020 6.10477040e-03
300 1 4.15883095 0.00010130 0.24520388 6.10144793e-03
301 1 4.28114786 0.00010425 0.24520902 6.09206826e-03
302 1 4.40346472 0.00010648 0.24520886 6.08473760e-03
303 1 4.52578179 0.00010701 0.24520337 6.07718969e-03
304 1 4.64809929 0.00010511 0.24520411 6.08430762e-03
305 1 4.77041265 0.00009898 0.24520388 6.08084602e-03
306 1 4.89273283 0.00009714 0.24520442 6.08857506e-03
307 1 5.01504869 0.00009381 0.24521052 6.09439460e-03
308 1 5.13736462 0.00009652 0.24521220 6.09360296e-03
309 1 5.25967630 0.00009701 0.24521779 6.10212083e-03
310 1 5.38199418 0.00010148 0.24522057 6.09455787e-03
311 1 5.50431208 0.00010107 0.24522277 6.08457013e-03
312 1 5.62662840 0.00010906 0.24522562 6.08334006e-03
313 1 5.74893930 0.00010641 0.24523281 6.09025173e-03
314 1 5.87125366 0.00010726 0.24523228 6.09206826e-03
315 1 5.99356491 0.00010815 0.24523205 6.09206826e-03
316 1 6.11587325 0.00010514 0.24522985 6.08838437e-03
317 1 6.23819101 0.00010223 0.24523115 6.09329454e-03
318 1 6.36050457 0.00010489 0.24523373 6.09400483e-03
319 1 6.48281555 0.00010434 0.24523482 6.08872179e-03
320 1 6.60512708 0.00010270 0.24523270 6.08812243e-03
321 1 6.72744121 0.00009992 0.24522907 6.09206826e-03
322 1 6.84975178 0.00009690 0.24522870 6.09206826e-03
323 1 6.97206173 0.00009718 0.24522926 6.09206826e-03
324 1 7.09437288 0.00009855 0.24522989 6.06302327e-03
325 1 7.21668380 0.00009603 0.24523384 6.06302327e-03
326 1 7.33899610 0.00009842 0.24523753 5.90236529e-03
327 1 7.46130896 0.00009812 0.24524436 5.81608564e-03
328 1 7.58362310 0.00009999 0.24524358 6.10035823e-03
329 1 7.70593854 0.00010320 0.24523946 5.08741347e-03
330 1 7.82824444 0.00009599 0.24522981 6.88423117e-03
331 1 7.95055028 0.00009624 0.24522817 4.95164977e-03
332 1 8.07286030 0.00009883 0.24522941 5.63292633e-03
333 1 8.19516632 0.00009951 0.24522967 5.95654755e-03
334 1 8.31747253 0.00009880 0.24523245 6.00432988e-03
335 1 8.43977947 0.00009732 0.24523807 6.08757506e-03
336 1 8.56208697 0.00009751 0.24523658 5.05700823e-03
337 1 8.68439686 0.00009643 0.24523150 6.83715280e-03
338 1 8.80670291 0.00009770 0.24522863 4.93632937e-03
339 1 8.92900751 0.00010066 0.24523090 5.62467055e-03
340 1 9.05131410 0.00010293 0.24522910 5.95386311e-03
341 1 9.17361994 0.00010352 0.24523344 6.00199927e-03
342 1 9.29592696 0.00010267 0.24523498 6.06987486e-03
343 1 9.41823612 0.00010302 0.24523250 5.01509653e-03
344 1 9.54053989 0.00009937 0.24523422 6.78511241e-03
345 1 9.66284669 0.00009909 0.24523326 4.92113473e-03
346 1 9.78515245 0.00010193 0.24523330 5.61645056e-03
347 1 9.90745626 0.00010042 0.24523737 5.95118153e-03
348 1 10.02976518 0.00009790 0.24523670 6.09206826e-03
349 1 10.15207033 0.00009884 0.24524004 6.09206826e-03
350 1 10.27437267 0.00009451 0.24523884 6.09206826e-03
351 1 10.39667855 0.00008937 0.24523804 6.50085567e-03
352 1 10.51898143 0.00008389 0.24523933 6.38496347e-03
353 1 10.64128462 0.00008300 0.24524316 5.77251663e-03
354 1 10.76359251 0.00008438 0.24524072 5.73476969e-03
355 1 10.88589490 0.00008185 0.24523983 5.94888879e-03
356 1 11.00819807 0.00008541 0.24524059 6.09206826e-03
357 1 11.13049956 0.00008487 0.24523950 6.09206826e-03
358 1 11.25280281 0.00008634 0.24524073 6.09206826e-03
359 1 11.37510506 0.00008769 0.24524347 6.09206826e-03
360 1 11.49741019 0.00008704 0.24524371 4.98457375e-03
361 1 11.61971354 0.00007832 0.24524120 6.69756871e-03
362 1 11.74201648 0.00007462 0.24523904 5.15375987e-03
363 1 11.86432148 0.00007449 0.24524088 4.95985007e-03
364 1 11.98662450 0.00007162 0.24523895 6.48212442e-03
365 1 12.10892119 0.00007464 0.24523993 5.14927068e-03
366 1 12.23122232 0.00007501 0.24524351 4.95341033e-03
367 1 12.35352567 0.00007687 0.24524600 6.46347279e-03
368 1 12.47582673 0.00007489 0.24524302 5.14043101e-03
369 1 12.59812945 0.00007554 0.24524735 4.91020010e-03
370 1 12.72043011 0.00007396 0.24524704 6.45556760e-03
371 1 12.84272860 0.00007455 0.24524841 4.90989307e-03
372 1 12.96502785 0.00007509 0.24525014 5.52395043e-03
373 1 13.08732762 0.00007405 0.24524897 5.87068470e-03
374 1 13.20962678 0.00007193 0.24524704 4.87920209e-03
375 1 13.33192465 0.00006739 0.24524482 6.41661913e-03
376 1 13.45422209 0.00006732 0.24524525 4.89988333e-03
377 1 13.57652348 0.00006448 0.24524717 5.51681014e-03
378 1 13.69882346 0.00006243 0.24524759 5.85936171e-03
379 1 13.82112085 0.00006051 0.24524604 4.85938456e-03
380 1 13.94342135 0.00005909 0.24524464 6.38254444e-03
381 1 14.06571525 0.00006010 0.24524611 4.88995824e-03
382 1 14.18801113 0.00006081 0.24524715 5.57476230e-03
383 1 14.31030768 0.00006056 0.24524644 5.93743790e-03
384 1 14.43260223 0.00006366 0.24525111 5.98766457e-03
385 1 14.55489722 0.00006469 0.24525121 5.96043235e-03
386 1 14.67719409 0.00006262 0.24525065 4.81637844e-03
387 1 14.79949142 0.00006452 0.24525329 6.34214196e-03
388 1 14.92178675 0.00006323 0.24525223 4.87620659e-03
389 1 15.04408421 0.00006245 0.24525328 5.56677439e-03
390 1 15.16637807 0.00006101 0.24525388 5.93477518e-03
391 1 15.28867204 0.00006058 0.24525206 5.98532808e-03
392 1 15.41096747 0.00006016 0.24525287 5.94249673e-03
393 1 15.53326389 0.00005909 0.24525434 4.79106117e-03
394 1 15.65555670 0.00005792 0.24525678 6.34873408e-03
395 1 15.77785128 0.00005479 0.24525726 5.10720957e-03
396 1 15.90014815 0.00005755 0.24525825 4.79385489e-03
397 1 16.02244406 0.00005301 0.24525927 6.33054845e-03
398 1 16.14473761 0.00005593 0.24525663 5.10009402e-03
399 1 16.26703287 0.00005538 0.24525942 4.78369059e-03
400 1 16.38932494 0.00005250 0.24525758 6.31203828e-03
401 1 16.51161643 0.00005512 0.24525619 5.09300092e-03
402 1 16.63391110 0.00005631 0.24525560 4.74903927e-03
403 1 16.75620340 0.00005626 0.24525330 6.32830758e-03
404 1 16.87849410 0.00005386 0.24525413 5.08343922e-03
405 1 17.00078613 0.00005321 0.24525387 4.32591159e-03
406 1 17.12307777 0.00005170 0.24524934 6.00104739e-03
407 1 17.24536941 0.00004845 0.24524951 5.21119202e-03
408 1 17.36766121 0.00004764 0.24524935 6.09206826e-03
409 1 17.48995219 0.00004629 0.24524901 6.05153388e-03
410 1 17.61224241 0.00004595 0.24524768 5.91774538e-03
411 1 17.73453373 0.00004405 0.24524983 6.22305381e-03
412 1 17.85682428 0.00004397 0.24525152 5.03791106e-03
413 1 17.97911354 0.00004395 0.24524998 4.72607940e-03
414 1 18.10140241 0.00004143 0.24524940 8.71836332e-03
415 1 18.22369258 0.00003917 0.24524934 5.95355142e-03
416 1 18.34598145 0.00003957 0.24525086 5.36960420e-03
417 1 18.46826937 0.00004137 0.24525242 6.03255871e-03
418 1 18.59055848 0.00004066 0.24525198 5.00245570e-03
419 1 18.71284855 0.00003896 0.24525228 4.70280803e-03
420 1 18.83513718 0.00003772 0.24525204 8.65685956e-03
421 1 18.95742503 0.00003898 0.24525561 5.94692135e-03
422 1 19.07971256 0.00003677 0.24525763 5.65886656e-03
423 1 19.20200167 0.00003438 0.24525761 5.98663784e-03
424 1 19.32429010 0.00003396 0.24525843 6.03862808e-03
425 1 19.44657646 0.00003376 0.24525812 6.08821513e-03
426 1 19.56886337 0.00003239 0.24525798 6.17296108e-03
427 1 19.69114983 0.00003075 0.24525738 6.04911048e-03
428 1 19.81343726 0.00002979 0.24525736 6.99423467e-03
429 1 19.93572404 0.00002995 0.24525700 6.49916941e-03
430 1 20.05800961 0.00002974 0.24525980 6.05139015e-03
431 1 20.18029504 0.00002924 0.24526073 6.07023001e-03
432 1 20.30258084 0.00002874 0.24526047 6.06423220e-03
433 1 20.42486651 0.00002813 0.24526109 6.03339671e-03
434 1 20.54715111 0.00002813 0.24526171 6.06123277e-03
435 1 20.66943639 0.00002755 0.24526040 6.05523286e-03
436 1 20.79172106 0.00002711 0.24526020 6.01539697e-03
437 1 20.91400537 0.00002430 0.24526121 6.05223237e-03
438 1 21.03629028 0.00002387 0.24526265 6.04623034e-03
439 1 21.15857411 0.00002416 0.24526312 5.99739088e-03
440 1 21.28085702 0.00002271 0.24526360 6.03386113e-03
441 1 21.40313973 0.00002212 0.24526342 6.06015229e-03
442 1 21.52542311 0.00002191 0.24526374 6.93292310e-03
443 1 21.64770626 0.00001892 0.24526277 6.60839364e-03
444 1 21.76998872 0.00001815 0.24526383 6.08325267e-03
445 1 21.89227137 0.00001697 0.24526337 5.98999100e-03
446 1 22.01455363 0.00001602 0.24526381 6.02220795e-03
447 1 22.13683595 0.00001527 0.24526444 5.94934321e-03
448 1 22.25911844 0.00001423 0.24526540 6.00521256e-03
449 1 22.38140015 0.00001414 0.24526596 5.96042100e-03
450 1 22.50368183 0.00001277 0.24526737 6.01327673e-03
451 1 22.62596304 0.00001244 0.24526802 6.06616825e-03
452 1 22.74824424 0.00001176 0.24526839 6.09206826e-03
453 1 22.87052472 0.00001103 0.24526809 6.22108889e-03
454 1 22.99280501 0.00001024 0.24526843 6.93510095e-03
455 1 23.11508479 0.00000945 0.24526879 6.55067958e-03
456 1 23.23736479 0.00000904 0.24526975 5.44215936e-03
457 1 23.35964455 0.00000807 0.24526964 5.52453627e-03
458 1 23.48192426 0.00000668 0.24526910 6.09206826e-03
459 1 23.60420358 0.00000559 0.24526942 5.52769247e-03
460 1 23.72648215 0.00000551 0.24526990 5.54504444e-03
461 1 23.84876085 0.00000490 0.24526976 6.09206826e-03
462 1 23.97103942 0.00000413 0.24527059 5.52433613e-03
463 1 24.09331797 0.00000349 0.24527092 5.54169116e-03
464 1 24.21559596 0.00000318 0.24527106 6.09959331e-03
465 1 24.33787395 0.00000256 0.24527149 5.37708140e-03
466 1 24.46015168 0.00000199 0.24527153 5.50601994e-03
467 1 24.58242917 0.00000141 0.24527152 6.09132348e-03
468 1 24.70470640 0.00000078 0.24527183 5.36406280e-03
469 1 24.82698321 0.00000013 0.24527204 5.50114066e-03
470 1 24.94925997 -0.00000054 0.24527224 6.07613573e-03
471 1 25.07153637 -0.00000124 0.24527245 5.86576563e-03
472 1 25.19381242 -0.00000184 0.24527270 5.87763704e-03
473 1 25.31608842 -0.00000264 0.24527310 5.79509293e-03
474 1 25.43836421 -0.00000322 0.24527323 6.45795830e-03
475 1 25.56063977 -0.00000387 0.24527344 6.36067877e-03
476 1 25.68291499 -0.00000445 0.24527365 5.01672083e-03
477 1 0.12231635 1.20995339 -0.24469542 -5.06599779e-03
478 1 0.24462113 1.20991522 -0.24467460 -5.96099493e-03
479 1 0.36692622 1.20988647 -0.24466832 -6.06828787e-03
480 1 0.48924314 1.20987430 -0.24467074 -6.09081051e-03
481 1 0.61156230 1.20986724 -0.24467021 -6.09597885e-03
482 1 0.73388196 1.20986671 -0.24467191 -6.09677124e-03
483 1 0.85620201 1.20986530 -0.24467562 -6.09261604e-03
484 1 0.97852069 1.20986501 -0.24467927 -6.09210769e-03
485 1 1.10084408 1.20986193 -0.24468571 -6.09159289e-03
486 1 1.22316479 1.20985853 -0.24469024 -6.09258964e-03
487 1 1.34548710 1.20986018 -0.24469574 -6.11404233e-03
488 1 1.46780825 1.20986228 -0.24470081 -6.12924398e-03
489 1 1.59013033 1.20986158 -0.24469967 -6.13810471e-03
490 1 1.71245336 1.20986141 -0.24469411 -6.10740278e-03
491 1 1.83477380 1.20985979 -0.24469363 -6.11299929e-03
492 1 1.95709547 1.20986342 -0.24469768 -6.11651709e-03
493 1 2.07941520 1.20986338 -0.24469374 -6.10892752e-03
494 1 2.20173390 1.20986417 -0.24469656 -6.08383817e-03
495 1 2.32405962 1.20986024 -0.24469350 -6.07811671e-03
496 1 2.44638034 1.20986116 -0.24469558 -6.12167487e-03
497 1 2.56869573 1.20985928 -0.24470000 -6.12891596e-03
498 1 2.69101561 1.20986003 -0.24470026 -6.13439434e-03
499 1 2.81333870 1.20986102 -0.24470552 -6.11877956e-03
500 1 2.93565679 1.20985759 -0.24470175 -6.09486572e-03
501 1 3.05797493 1.20985776 -0.24470115 -6.09206826e-03
502 1 3.18029738 1.20985703 -0.24470140 -6.09206855e-03
503 1 3.30261297 1.20986083 -0.24470316 -6.09206932e-03
504 1 3.42493308 1.20985620 -0.24469872 -6.11378764e-03
505 1 3.54725119 1.20985848 -0.24469629 -6.10132488e-03
506 1 3.66956542 1.20986161 -0.24469660 -6.14015253e-03
507 1 3.79188398 1.20985902 -0.24469973 -6.18862768e-03
508 1 3.91419992 1.20986176 -0.24469841 -6.20494803e-03
509 1 4.03651433 1.20986245 -0.24469656 -6.16689241e-03
510 1 4.15883043 1.20986252 -0.24469567 -6.13536340e-03
511 1 4.28114616 1.20985624 -0.24469577 -6.09206826e-03
512 1 4.40346408 1.20985291 -0.24469464 -6.09528258e-03
513 1 4.52578040 1.20985469 -0.24469310 -6.10197805e-03
514 1 4.64809420 1.20985511 -0.24468861 -6.09705471e-03
515 1 4.77040933 1.20986039 -0.24468729 -6.06436498e-03
516 1 4.89273066 1.20986278 -0.24468710 -6.12133674e-03
517 1 5.01504550 1.20986700 -0.24468814 -6.20974613e-03
518 1 5.13735962 1.20987113 -0.24468851 -6.24802334e-03
519 1 5.25967409 1.20987298 -0.24468840 -6.19819175e-03
520 1 5.38198894 1.20987236 -0.24469161 -6.15088270e-03
521 1 5.50430430 1.20987897 -0.24469285 -6.13301438e-03
522 1 5.62662027 1.20988314 -0.24469130 -6.10131989e-03
523 1 5.74893445 1.20988277 -0.24468994 -6.05757291e-03
524 1 5.87124880 1.20988663 -0.24469013 -6.04491082e-03
525 1 5.99356249 1.20988449 -0.24469065 -6.05437557e-03
526 1 6.11587603 1.20988772 -0.24468896 -6.06489385e-03
527 1 6.23818962 1.20989019 -0.24468618 -6.09206826e-03
528 1 6.36050077 1.20989367 -0.24468500 -6.09206826e-03
529 1 6.48281671 1.20989203 -0.24469178 -6.09979510e-03
530 1 6.60513038 1.20989388 -0.24469343 -6.12512692e-03
531 1 6.72744207 1.20989508 -0.24469496 -6.16578501e-03
532 1 6.84975197 1.20989371 -0.24469549 -6.26929389e-03
533 1 6.97205887 1.20989614 -0.24469297 -6.28695529e-03
534 1 7.09436975 1.20989874 -0.24469193 -6.28583704e-03
535 1 7.21667916 1.20989960 -0.24469172 -6.23881179e-03
536 1 7.33898785 1.20990040 -0.24469235 -6.30184580e-03
537 1 7.46129567 1.20990077 -0.24469144 -6.28022129e-03