ITEM: TIMESTEP
0
ITEM: NUMBER OF ATOMS
10710
ITEM: BOX BOUNDS ff ff ff
-2.0 23.97108092245922
-2.0105634637535914 5.8197955694357635
-2.2461037123726006 15.425573317727018
ITEM: ATOMS id type x y z q
1 2 0.00000000 0.00000000 0.24527477 3.35542180e-03
2 2 0.00000000 0.00000000 -0.24472523 -3.35542180e-03
3 2 0.00000000 1.21000000 0.24527477 3.41686920e-03
4 2 0.00000000 1.21000000 -0.24472523 -3.41686920e-03
5 1 21.75827236 2.56603366 13.34997311 3.37776783e-03
6 1 21.97108092 2.63824958 12.91379739 -3.37776783e-03
7 1 21.51084935 3.74693918 13.42557332 3.41686920e-03
8 1 21.72336082 3.81979557 12.98939993 -3.41686920e-03
9 2 0.00000000 0.00000000 -0.12222523 0.00000000e+00
10 2 0.00000000 0.00000000 0.00027477 0.00000000e+00
11 2 0.00000000 0.00000000 0.12277477 0.00000000e+00
12 2 0.00000000 0.12100000 0.24527477 5.18139194e-03
13 2 0.00000000 0.24200000 0.24527477 5.50362000e-03
14 2 0.00000000 0.36300000 0.24527477 5.01501884e-03
15 2 0.00000000 0.48400000 0.24527477 5.50904170e-03
16 2 0.00000000 0.60500000 0.24527477 6.02408537e-03
17 2 0.00000000 0.72600000 0.24527477 6.86123120e-03
18 2 0.00000000 0.84700000 0.24527477 6.83241897e-03
19 2 0.00000000 0.96800000 0.24527477 5.84994208e-03
20 2 0.00000000 1.08900000 0.24527477 4.96878236e-03
21 2 0.00000000 1.21000000 -0.12222523 0.00000000e+00
22 2 0.00000000 1.21000000 0.00027477 0.00000000e+00
23 2 0.00000000 1.21000000 0.12277477 0.00000000e+00
24 2 0.00000000 0.12100000 -0.24472523 -5.18139194e-03
25 2 0.00000000 0.24200000 -0.24472523 -5.50362000e-03
26 2 0.00000000 0.36300000 -0.24472523 -5.01501884e-03
27 2 0.00000000 0.48400000 -0.24472523 -5.50904170e-03
28 2 0.00000000 0.60500000 -0.24472523 -6.02408537e-03
29 2 0.00000000 0.72600000 -0.24472523 -6.86123120e-03
30 2 0.00000000 0.84700000 -0.24472523 -6.83241897e-03
31 2 0.00000000 0.96800000 -0.24472523 -5.84994208e-03
32 2 0.00000000 1.08900000 -0.24472523 -4.96878236e-03
33 1 21.91786474 2.62018317 13.02286629 0.00000000e+00
34 1 21.86465747 2.60211917 13.13189378 0.00000000e+00
35 1 21.81145273 2.58406977 13.24091997 0.00000000e+00
36 1 21.73354484 2.68414813 13.35746838 5.05002864e-03
37 1 21.70883850 2.80224924 13.36497531 5.64089052e-03
38 1 21.68412286 2.92035703 13.37247902 5.44128437e-03
39 1 21.65944775 3.03846152 13.38001308 6.40224548e-03
40 1 21.63466731 3.15653021 13.38753981 6.88148315e-03
41 1 21.60993452 3.27461229 13.39508671 6.11583422e-03
42 1 21.58516480 3.39270237 13.40268018 5.69198232e-03
43 1 21.56035221 3.51079764 13.41032557 6.01735171e-03
44 1 21.53558137 3.62886314 13.41793829 5.43527194e-03
45 1 21.67022362 3.80157814 13.09846141 0.00000000e+00
46 1 21.61707706 3.78336799 13.20747655 0.00000000e+00
47 1 21.56394058 3.76515321 13.31650747 0.00000000e+00
48 1 21.94634569 2.75638859 12.92131970 -5.05002864e-03
49 1 21.92160304 2.87455414 12.92885582 -5.64089052e-03
50 1 21.89686086 2.99269869 12.93631273 -5.44128437e-03
51 1 21.87211599 3.11086704 12.94381167 -6.40224548e-03
52 1 21.84735579 3.22903698 12.95136014 -6.88148315e-03
53 1 21.82257363 3.34721723 12.95899353 -6.11583422e-03
54 1 21.79777190 3.46539636 12.96653886 -5.69198232e-03
55 1 21.77296507 3.58354319 12.97416532 -6.01735171e-03
56 1 21.74818829 3.70167299 12.98179984 -5.43527194e-03
57 1 0.12633884 0.00697678 -0.24610371 -4.80862070e-03
58 1 0.25349378 0.01257182 -0.24298791 -5.62714142e-03
59 1 0.38104209 0.01382733 -0.23876266 -6.00619986e-03
60 1 0.51050966 0.01420710 -0.23240959 -6.09052560e-03
61 1 0.63834756 0.01525826 -0.22303351 -6.09206826e-03
62 1 0.76635973 0.01857093 -0.21156228 -5.94781856e-03
63 1 0.89370390 0.02198067 -0.19745575 -5.82025544e-03
64 1 1.02008176 0.02187238 -0.17694191 -5.95871849e-03
65 1 1.14885507 0.02410152 -0.15654655 -6.09232315e-03
66 1 1.27573942 0.02525435 -0.13499143 -6.09205550e-03
67 1 1.40077246 0.02801949 -0.10995667 -6.08598370e-03
68 1 1.52547988 0.03216993 -0.07977534 -6.07933546e-03
69 1 1.65016660 0.03524834 -0.05202378 -6.08488133e-03
70 1 1.77357569 0.03801783 -0.01992071 -6.08161608e-03
71 1 1.89626761 0.04135838 0.01363866 -6.08881076e-03
72 1 2.01997199 0.04454501 0.05022084 -6.09207793e-03
73 1 2.14230895 0.04844332 0.08781154 -6.09206431e-03
74 1 2.26346238 0.05373065 0.12902392 -6.09206920e-03
75 1 2.38419015 0.05747736 0.17088278 -6.09206749e-03
76 1 2.50346461 0.06100388 0.21389678 -6.09206826e-03
77 1 2.62176979 0.06555012 0.25841190 -6.09206901e-03
78 1 2.74051731 0.06858833 0.30421579 -6.08547783e-03
79 1 2.85769705 0.07400776 0.35171139 -6.07797420e-03
80 1 2.97406937 0.08065349 0.40114770 -6.08460882e-03
81 1 3.09021973 0.08494673 0.45131942 -6.08123045e-03
82 1 3.20496640 0.09059430 0.50339441 -6.08867780e-03
83 1 3.31884512 0.09628379 0.55649565 -6.09206866e-03
84 1 3.43245281 0.10223922 0.61129990 -6.09206839e-03
85 1 3.54534103 0.10716945 0.66631818 -6.09206833e-03
86 1 3.65810941 0.11237664 0.72313420 -6.09206826e-03
87 1 3.77036131 0.11935529 0.78104546 -6.09206824e-03
88 1 3.88138257 0.12574213 0.83933643 -6.09206825e-03
89 1 3.99233162 0.13121143 0.89817948 -6.10477040e-03
90 1 4.10234948 0.13889103 0.95821126 -6.10144793e-03
91 1 4.21134442 0.14558192 1.01899458 -6.09206826e-03
92 1 4.32092316 0.15215421 1.08062709 -6.08473760e-03
93 1 4.42881855 0.15877468 1.14271274 -6.07718969e-03
94 1 4.53626565 0.16629950 1.20622286 -6.08430762e-03
95 1 4.64342850 0.17381737 1.26995537 -6.08084602e-03
96 1 4.75070981 0.18105105 1.33427115 -6.08857506e-03
97 1 4.85723667 0.18915117 1.39981209 -6.09439460e-03
98 1 4.96333754 0.19634888 1.46578566 -6.09360296e-03
99 1 5.06842271 0.20409530 1.53311916 -6.10212083e-03
100 1 5.17355705 0.21152225 1.60037033 -6.09455787e-03
101 1 5.27752610 0.22011380 1.66796469 -6.08457013e-03
102 1 5.38136466 0.22789993 1.73610946 -6.08334006e-03
103 1 5.48513521 0.23593861 1.80565653 -6.09025173e-03
104 1 5.58796666 0.24406313 1.87484624 -6.09206826e-03
105 1 5.69059577 0.25253861 1.94460002 -6.09206826e-03
106 1 5.79255429 0.26145446 2.01502489 -6.08838437e-03
107 1 5.89421899 0.26977539 2.08570310 -6.09329454e-03
108 1 5.99631470 0.27829338 2.15696689 -6.09400483e-03
109 1 6.09777345 0.28729270 2.22842063 -6.08872179e-03
110 1 6.19854428 0.29636267 2.30093197 -6.08812243e-03
111 1 6.29865727 0.30515494 2.37324442 -6.09206826e-03
112 1 6.39898862 0.31416197 2.44543538 -6.09206826e-03
113 1 6.49864771 0.32326574 2.51816293 -6.09206826e-03
114 1 6.59777805 0.33260278 2.59154265 -6.06302327e-03
115 1 6.69711788 0.34155698 2.66489628 -6.06302327e-03
116 1 6.79609186 0.35097561 2.73901123 -5.90236529e-03
117 1 6.89468792 0.36071029 2.81316996 -5.81608564e-03
118 1 6.99322902 0.37006143 2.88744697 -6.10035823e-03
119 1 7.09141289 0.37952915 2.96199175 -5.08741334e-03
120 1 7.18953248 0.38928340 3.03655250 -6.87719096e-03
121 1 7.28723900 0.39927079 3.11117766 -5.18694999e-03
122 1 7.38520165 0.40892583 3.18613006 -5.00655937e-03
123 1 7.48257476 0.41880995 3.26142637 -7.17602109e-03
124 1 7.57971606 0.42907891 3.33687886 -5.64123658e-03
125 1 7.67720074 0.43948176 3.41211694 -5.91249038e-03
126 1 7.77406743 0.44969747 3.48755034 -5.77202514e-03
127 1 7.87094091 0.46000115 3.56305373 -5.95689302e-03
128 1 7.96768359 0.47059058 3.63881066 -6.09206826e-03
129 1 8.06440606 0.48099770 3.71456909 -6.09206826e-03
130 1 8.16079607 0.49149011 3.79049296 -6.09206826e-03
131 1 8.25719870 0.50213502 3.86642488 -6.00199927e-03
132 1 8.35337841 0.51305617 3.94249508 -6.06987486e-03
133 1 8.44943916 0.52391752 4.01862862 -5.02835518e-03
134 1 8.54560499 0.53481968 4.09467294 -6.79157831e-03
135 1 8.64164518 0.54601599 4.17062237 -4.92113473e-03
136 1 8.73772540 0.55700731 4.24684192 -5.56259368e-03
137 1 8.83348559 0.56814673 4.32307877 -5.94323360e-03
138 1 8.92922772 0.57931575 4.39939556 -5.00637084e-03
139 1 9.02493403 0.59062965 4.47562397 -6.75640181e-03
140 1 9.12092713 0.60214513 4.55162688 -4.91035923e-03
141 1 9.21661120 0.61363745 4.62781074 -5.75765677e-03
142 1 9.31218567 0.62518253 4.70406203 -6.37465021e-03
143 1 9.40776411 0.63677447 4.78022307 -6.33172667e-03
144 1 9.50339500 0.64835473 4.85621518 -5.77695765e-03
145 1 9.59899137 0.66021987 4.93221944 -5.75602868e-03
146 1 9.69461675 0.67212564 5.00826925 -5.94989338e-03
147 1 9.79028428 0.68418396 5.08416505 -6.09206826e-03
148 1 9.88599463 0.69621917 5.15996896 -6.09206826e-03
149 1 9.98169471 0.70841914 5.23569702 -6.49862787e-03
150 1 10.07738835 0.72068113 5.31129607 -6.47806478e-03
151 1 10.17304456 0.73316810 5.38690192 -5.98398651e-03
152 1 10.26876104 0.74550882 5.46236693 -5.97118729e-03
153 1 10.36465873 0.75813103 5.53777184 -6.32827249e-03
154 1 10.46051336 0.77078073 5.61311416 -6.38296841e-03
155 1 10.55633026 0.78325936 5.68835946 -6.09206826e-03
156 1 10.65222590 0.79615118 5.76335478 -5.92176613e-03
157 1 10.74817997 0.80883438 5.83833115 -5.84196899e-03
158 1 10.84425172 0.82180819 5.91324311 -5.89327746e-03
159 1 10.94023133 0.83475577 5.98789829 -4.96011300e-03
160 1 11.03635315 0.84778436 6.06262212 -6.65158567e-03
161 1 11.13264107 0.86101435 6.13709081 -4.90989307e-03
162 1 11.22880112 0.87429639 6.21145828 -5.52395043e-03
163 1 11.32525744 0.88742739 6.28558569 -5.87068470e-03
164 1 11.42160426 0.90085898 6.35964852 -4.88602194e-03
165 1 11.51819454 0.91432381 6.43356777 -6.40279006e-03
166 1 11.61468074 0.92790242 6.50738934 -5.12407601e-03
167 1 11.71134686 0.94166350 6.58097351 -4.88216806e-03
168 1 11.80812403 0.95537435 6.65457192 -6.38017819e-03
169 1 11.90498329 0.96902608 6.72785296 -5.11373203e-03
170 1 12.00190121 0.98309194 6.80094005 -4.85398664e-03
171 1 12.09894098 0.99704891 6.87393648 -6.35577596e-03
172 1 12.19624335 1.01106792 6.94660164 -5.10698016e-03
173 1 12.29340369 1.02537485 7.01921549 -4.85870271e-03
174 1 12.39091541 1.03959256 7.09155383 -6.37702085e-03
175 1 12.48830829 1.05401783 7.16390703 -5.10092274e-03
176 1 12.58588406 1.06832714 7.23602317 -4.84968636e-03
177 1 12.68366106 1.08265429 7.30794635 -6.37599125e-03
178 1 12.78129073 1.09719987 7.37962087 -4.87710407e-03
179 1 12.87914290 1.11176383 7.45098686 -5.56677439e-03
180 1 12.97705327 1.12666003 7.52232515 -5.93477518e-03
181 1 13.07518693 1.14121120 7.59341566 -6.09206826e-03
182 1 13.17338911 1.15617329 7.66429549 -6.09206826e-03
183 1 13.27179714 1.17095055 7.73499930 -5.98211588e-03
184 1 13.37032723 1.18597249 7.80549361 -5.88223740e-03
185 1 13.46899006 1.20100099 7.87569617 -5.93479953e-03
186 1 13.56772841 1.21661930 7.94558070 -4.77734034e-03
187 1 13.66670760 1.23179972 8.01549320 -6.31776323e-03
188 1 13.76570536 1.24700577 8.08510834 -4.85845554e-03
189 1 13.86477921 1.26227789 8.15431241 -5.48045656e-03
190 1 13.96400978 1.27785398 8.22344302 -5.74774533e-03
191 1 14.06355619 1.29355488 8.29238903 -5.91938606e-03
192 1 14.16304955 1.30932789 8.36082450 -4.72601755e-03
193 1 14.26270476 1.32484510 8.42922512 -6.44309587e-03
194 1 14.36272603 1.34068666 8.49756040 -5.21392668e-03
195 1 14.46261813 1.35657938 8.56573783 -4.32492230e-03
196 1 14.56260968 1.37242750 8.63355808 -6.11554878e-03
197 1 14.66292638 1.38842901 8.70107823 -5.20526136e-03
198 1 14.76307817 1.40441149 8.76825845 -4.31230685e-03
199 1 14.86358196 1.42045285 8.83560560 -6.11716232e-03
200 1 14.96438625 1.43642967 8.90242754 -5.69773107e-03
201 1 15.06500551 1.45294520 8.96909769 -5.99314584e-03
202 1 15.16582028 1.46909485 9.03540701 -4.76350900e-03
203 1 15.26696004 1.48572811 9.10137203 -5.21120302e-03
204 1 15.36798224 1.50216426 9.16734138 -6.01204532e-03
205 1 15.46936986 1.51873180 9.23317185 -5.73233737e-03
206 1 15.57070211 1.53544011 9.29857219 -5.81943467e-03
207 1 15.67243126 1.55202945 9.36386857 -6.32655047e-03
208 1 15.77391792 1.56880391 9.42866447 -5.03614005e-03
209 1 15.87569947 1.58554258 9.49365972 -4.70280803e-03
210 1 15.97779963 1.60237312 9.55818039 -8.65683464e-03
211 1 16.07979396 1.61910886 9.62252029 -5.94692004e-03
212 1 16.18227262 1.63623387 9.68642767 -5.65885778e-03
213 1 16.28437946 1.65321349 9.75036180 -5.99277035e-03
214 1 16.38698533 1.67053552 9.81384564 -6.04066598e-03
215 1 16.48971588 1.68782678 9.87728842 -6.09206826e-03
216 1 16.59242334 1.70465032 9.94010760 -6.09206826e-03
217 1 16.69545385 1.72192910 10.00312464 -6.09206826e-03
218 1 16.79830959 1.73946253 10.06587459 -5.94140402e-03
219 1 16.90145186 1.75695036 10.12840537 -6.09135703e-03
220 1 17.00475339 1.77429219 10.19066665 -6.09135703e-03
221 1 17.10800881 1.79167729 10.25268698 -6.09206826e-03
222 1 17.21149385 1.80925345 10.31449709 -6.22362401e-03
223 1 17.31532345 1.82665585 10.37610484 -6.30618064e-03
224 1 17.41895655 1.84445638 10.43747639 -6.16079228e-03
225 1 17.52273870 1.86222828 10.49875469 -6.90076158e-03
226 1 17.62676509 1.87990481 10.55981485 -7.19612184e-03
227 1 17.73074339 1.89761458 10.62064216 -6.17999120e-03
228 1 17.83493380 1.91527745 10.68119479 -5.85545161e-03
229 1 17.93921645 1.93315527 10.74163712 -6.04373412e-03
230 1 18.04359505 1.95084533 10.80166769 -6.05837687e-03
231 1 18.14802028 1.96896968 10.86153659 -6.22625934e-03
232 1 18.25272086 1.98708186 10.92130340 -6.96326852e-03
233 1 18.35730663 2.00507939 10.98086801 -6.60839364e-03
234 1 18.46229677 2.02309110 11.04010721 -6.08325267e-03
235 1 18.56740224 2.04131964 11.09908542 -5.98999100e-03
236 1 18.67245533 2.05937863 11.15799276 -6.02220795e-03
237 1 18.77762409 2.07779639 11.21664748 -5.94934321e-03
238 1 18.88294134 2.09610977 11.27515418 -6.23085673e-03
239 1 18.98844632 2.11438668 11.33361622 -5.91383044e-03
240 1 19.09384356 2.13261646 11.39172484 -5.82022831e-03
241 1 19.19941858 2.15108968 11.44981639 -6.06616825e-03
242 1 19.30503131 2.16966406 11.50752196 -6.09206826e-03
243 1 19.41092814 2.18806425 11.56523711 -6.22108889e-03
244 1 19.51682249 2.20623946 11.62280396 -6.93510095e-03
245 1 19.62287716 2.22476535 11.68010631 -6.55067958e-03
246 1 19.72876384 2.24339828 11.73734660 -5.44215936e-03
247 1 19.83500481 2.26191347 11.79447653 -5.52453627e-03
248 1 19.94118076 2.28033584 11.85136757 -6.11677386e-03
249 1 20.04756834 2.29904095 11.90821263 -5.40422112e-03
250 1 20.15386879 2.31783929 11.96482010 -5.51625079e-03
251 1 20.26028756 2.33653756 12.02128350 -6.10817079e-03
252 1 20.36681701 2.35528522 12.07764259 -5.39058303e-03
253 1 20.47341968 2.37396964 12.13389433 -5.51111698e-03
254 1 20.57998201 2.39281539 12.19007058 -6.09959331e-03
255 1 20.68672095 2.41164824 12.24617699 -5.37708140e-03
256 1 20.79352603 2.43024142 12.30209257 -5.50601994e-03
257 1 20.90032839 2.44908860 12.35805706 -6.09132348e-03
258 1 21.00720332 2.46799916 12.41386309 -5.36406280e-03
259 1 21.11414669 2.48681713 12.46956033 -5.50114066e-03
260 1 21.22119690 2.50574714 12.52524212 -6.07613573e-03
261 1 21.32822456 2.52461516 12.58086332 -5.86576563e-03
262 1 21.43531203 2.54361141 12.63641720 -5.87763703e-03
263 1 21.54238324 2.56253036 12.69193661 -5.79509293e-03
264 1 21.64955135 2.58147612 12.74742484 -6.45795830e-03
265 1 21.75669108 2.60040700 12.80289024 -6.36067877e-03
266 1 21.86386999 2.61933277 12.85835935 -5.01672083e-03
267 1 0.12014437 -0.00483720 0.24210727 4.80862070e-03
268 1 0.24026959 -0.00886744 0.24259933 5.62714142e-03
269 1 0.36031108 -0.00848482 0.24501838 6.00619986e-03
270 1 0.47968149 -0.00830882 0.25377360 6.09052560e-03
271 1 0.59672567 -0.01028541 0.26202203 6.09206826e-03
272 1 0.71651930 -0.01056346 0.27216805 5.94781856e-03
273 1 0.83525123 -0.00954408 0.28762138 5.82025544e-03
274 1 0.95179232 -0.00525081 0.30291305 5.95871849e-03
275 1 1.06832591 -0.00299906 0.32175254 6.09232315e-03
276 1 1.18561998 -0.00152762 0.34485588 6.09205550e-03
277 1 1.30233371 0.00186817 0.36734287 6.08598370e-03
278 1 1.42012448 0.00327839 0.39146704 6.07933546e-03
279 1 1.53694326 0.00521395 0.42026210 6.08488133e-03
280 1 1.65133490 0.00811284 0.44924854 6.08161608e-03
281 1 1.76724179 0.01009217 0.48154602 6.08881076e-03
282 1 1.88303917 0.01259410 0.51599636 6.09207793e-03
283 1 1.99516439 0.01655021 0.55035005 6.09206431e-03
284 1 2.11010238 0.02162707 0.58779441 6.09206920e-03
285 1 2.22339007 0.02453667 0.62814121 6.09206749e-03
286 1 2.33682888 0.02858015 0.66965516 6.09206826e-03
287 1 2.44981515 0.03299730 0.71154946 6.09206901e-03
288 1 2.56216178 0.03651322 0.75707009 6.08547783e-03
289 1 2.67353191 0.04134937 0.80169450 6.07797420e-03
290 1 2.78428009 0.04616343 0.84883123 6.08460882e-03
291 1 2.89511409 0.05167321 0.89701555 6.08123045e-03
292 1 3.00541467 0.05654805 0.94748363 6.08867780e-03
293 1 3.11422940 0.06110201 0.99750440 6.09206866e-03
294 1 3.22372850 0.06508248 1.04911307 6.09206839e-03
295 1 3.33193706 0.07122264 1.10256463 6.09206833e-03
296 1 3.44041451 0.07631250 1.15705751 6.09206826e-03
297 1 3.54852069 0.08146616 1.21294613 6.09206824e-03
298 1 3.65529845 0.08668355 1.26893163 6.09206825e-03
299 1 3.76227741 0.09260566 1.32657977 6.10477040e-03
300 1 3.86821595 0.09880648 1.38443051 6.10144793e-03
301 1 3.97477353 0.10506087 1.44368244 6.09206826e-03
302 1 4.08065199 0.11114097 1.50367883 6.08473760e-03
303 1 4.18665263 0.11676871 1.56342742 6.07718969e-03
304 1 4.29217510 0.12223648 1.62476292 6.08430762e-03
305 1 4.39602303 0.12998084 1.68729206 6.08084602e-03
306 1 4.50010571 0.13611624 1.75005218 6.08857506e-03
307 1 4.60372361 0.14204520 1.81363310 6.09439460e-03
308 1 4.70696855 0.14857600 1.87813529 6.09360296e-03
309 1 4.80945656 0.15644434 1.94312418 6.10212083e-03
310 1 4.91153117 0.16324019 2.00870716 6.09455787e-03
311 1 5.01380083 0.17028548 2.07504530 6.08457013e-03
312 1 5.11584291 0.17765443 2.14225545 6.08334006e-03
313 1 5.21704654 0.18474181 2.20956212 6.09025173e-03
314 1 5.31814526 0.19179059 2.27752881 6.09206826e-03
315 1 5.41926851 0.19928398 2.34636347 6.09206826e-03
316 1 5.51955571 0.20695615 2.41509488 6.08838437e-03
317 1 5.61978321 0.21487465 2.48486926 6.09329454e-03
318 1 5.71945521 0.22191262 2.55487952 6.09400483e-03
319 1 5.81917833 0.23001971 2.62531122 6.08872179e-03
320 1 5.91865657 0.23812128 2.69622943 6.08812243e-03
321 1 6.01798083 0.24665616 2.76702836 6.09206826e-03
322 1 6.11669768 0.25458705 2.83887839 6.09206826e-03
323 1 6.21522808 0.26335956 2.91121535 6.09206826e-03
324 1 6.31351902 0.27162308 2.98336590 6.06302327e-03
325 1 6.41155493 0.28028007 3.05618415 6.06302327e-03
326 1 6.50935454 0.28886883 3.12921796 5.90236529e-03
327 1 6.60710158 0.29776829 3.20284909 5.81608564e-03
328 1 6.70480929 0.30696390 3.27655407 6.10035823e-03
329 1 6.80215996 0.31561405 3.35030919 5.08741347e-03
330 1 6.90000635 0.32456280 3.42402413 6.88423117e-03
331 1 6.99708302 0.33369749 3.49839858 4.95164977e-03
332 1 7.09403720 0.34290814 3.57264881 5.63292633e-03
333 1 7.19102226 0.35225513 3.64730520 5.95654755e-03
334 1 7.28769793 0.36156762 3.72211637 6.00432988e-03
335 1 7.38449623 0.37128787 3.79715019 6.08757506e-03
336 1 7.48096369 0.38075976 3.87222053 5.05700823e-03
337 1 7.57761764 0.39050033 3.94736200 6.83715280e-03
338 1 7.67403609 0.40035482 4.02255555 4.93632937e-03
339 1 7.77022676 0.41030617 4.09814062 5.62467055e-03
340 1 7.86640325 0.42023595 4.17369921 5.95386311e-03
341 1 7.96237869 0.43033746 4.24948943 6.00199927e-03
342 1 8.05842920 0.44061440 4.32530345 6.06987486e-03
343 1 8.15448858 0.45083840 4.40114916 5.01509653e-03
344 1 8.25053550 0.46120292 4.47702505 6.78511241e-03
345 1 8.34658295 0.47167640 4.55295893 4.92113473e-03
346 1 8.44250983 0.48231720 4.62907246 5.61645056e-03
347 1 8.53827286 0.49310676 4.70532739 5.95118153e-03
348 1 8.63426057 0.50381554 4.78135793 6.09206826e-03
349 1 8.73001458 0.51467955 4.85773245 6.09206826e-03
350 1 8.82577707 0.52571643 4.93383000 6.09206826e-03
351 1 8.92154698 0.53675409 5.01006319 6.50085567e-03
352 1 9.01723017 0.54782383 5.08627288 6.38496347e-03
353 1 9.11296677 0.55904074 5.16247542 5.77251663e-03
354 1 9.20882701 0.57052434 5.23868093 5.73476969e-03
355 1 9.30469774 0.58204596 5.31475374 5.94888879e-03
356 1 9.40056415 0.59374570 5.39083040 6.09206826e-03
357 1 9.49659100 0.60541262 5.46690842 6.09206826e-03
358 1 9.59251554 0.61715865 5.54296677 6.09206826e-03
359 1 9.68848179 0.62908318 5.61896093 6.09206826e-03
360 1 9.78457459 0.64101076 5.69481794 4.98457375e-03
361 1 9.88069573 0.65297404 5.77057795 6.69756871e-03
362 1 9.97682456 0.66503938 5.84633092 5.15375987e-03
363 1 10.07302549 0.67726446 5.92215117 4.95985007e-03
364 1 10.16933528 0.68961069 5.99771242 6.48212442e-03
365 1 10.26555974 0.70216446 6.07315363 5.14927068e-03
366 1 10.36188310 0.71458818 6.14867851 4.95341033e-03
367 1 10.45836778 0.72746616 6.22397268 6.46347279e-03
368 1 10.55500924 0.74003145 6.29930193 5.14043101e-03
369 1 10.65163670 0.75302133 6.37448333 4.91020010e-03
370 1 10.74823621 0.76577228 6.44936397 6.45556760e-03
371 1 10.84489081 0.77882511 6.52421704 4.90989307e-03
372 1 10.94172260 0.79201523 6.59902115 5.52395043e-03
373 1 11.03864327 0.80514456 6.67365600 5.87068470e-03
374 1 11.13579940 0.81842390 6.74813529 4.87920209e-03
375 1 11.23289513 0.83185906 6.82245732 6.41661913e-03
376 1 11.33012189 0.84534002 6.89672780 4.89988333e-03
377 1 11.42738464 0.85876819 6.97089512 5.51681014e-03
378 1 11.52473837 0.87236576 7.04480898 5.85936171e-03
379 1 11.62234612 0.88623770 7.11856523 4.85938456e-03
380 1 11.72005663 0.90000907 7.19232272 6.38254444e-03
381 1 11.81758825 0.91416390 7.26579997 4.88995824e-03
382 1 11.91540999 0.92819442 7.33899283 5.57476230e-03
383 1 12.01343649 0.94207852 7.41209340 5.93743790e-03
384 1 12.11147850 0.95667878 7.48512425 5.98766457e-03
385 1 12.20959504 0.97094344 7.55800910 5.96043235e-03
386 1 12.30798635 0.98513530 7.63051400 4.81637844e-03
387 1 12.40638377 0.99977249 7.70273107 6.34214196e-03
388 1 12.50484500 1.01422879 7.77507191 4.87620659e-03
389 1 12.60352248 1.02885506 7.84721900 5.56677439e-03
390 1 12.70225014 1.04375832 7.91914967 5.93477518e-03
391 1 12.80128415 1.05857559 7.99077002 5.98532808e-03
392 1 12.90037060 1.07339168 8.06226311 5.94249673e-03
393 1 12.99960216 1.08853761 8.13360269 4.79106117e-03
394 1 13.09890994 1.10374256 8.20454715 6.34873408e-03
395 1 13.19858645 1.11855516 8.27545138 5.10720957e-03
396 1 13.29826660 1.13415519 8.34605104 4.79385489e-03
397 1 13.39792362 1.14956740 8.41655698 6.33054845e-03
398 1 13.49770104 1.16519834 8.48653780 5.10009402e-03
399 1 13.59789412 1.18066446 8.55673733 4.78369059e-03
400 1 13.69788260 1.19597577 8.62634967 6.31203828e-03
401 1 13.79809312 1.21176632 8.69595101 5.09300092e-03
402 1 13.89874760 1.22748867 8.76538221 4.74903927e-03
403 1 13.99945415 1.24335775 8.83426112 6.32830758e-03
404 1 14.09985810 1.25914597 8.90314960 5.08343922e-03
405 1 14.20072412 1.27518464 8.97154439 4.32591159e-03
406 1 14.30171430 1.29149590 9.04000351 6.00104739e-03
407 1 14.40281958 1.30730603 9.10809917 5.21119202e-03
408 1 14.50425704 1.32382221 9.17630792 6.09206826e-03
409 1 14.60546197 1.34018288 9.24403614 6.05153388e-03
410 1 14.70712482 1.35639954 9.31160568 5.91774538e-03
411 1 14.80860154 1.37287616 9.37890815 6.22305381e-03
412 1 14.91042300 1.38923722 9.44577982 5.03791106e-03
413 1 15.01242951 1.40596338 9.51250574 4.72607940e-03
414 1 15.11440507 1.42239219 9.57898506 8.71836332e-03
415 1 15.21654841 1.43933030 9.64528477 5.95355142e-03
416 1 15.31885285 1.45596568 9.71144069 5.36960420e-03
417 1 15.42118203 1.47320157 9.77730609 6.03255871e-03
418 1 15.52380522 1.48999605 9.84299227 5.00245570e-03
419 1 15.62674516 1.50708808 9.90853087 4.70280803e-03
420 1 15.72969278 1.52385150 9.97350683 8.65685956e-03
421 1 15.83271705 1.54103877 10.03834864 5.94692135e-03
422 1 15.93564320 1.55831184 10.10311330 5.65886656e-03
423 1 16.03892109 1.57546288 10.16739270 5.98663784e-03
424 1 16.14258947 1.59277401 10.23153688 6.03862808e-03
425 1 16.24612232 1.61022163 10.29547003 6.08821513e-03
426 1 16.34964216 1.62754163 10.35910721 6.17296108e-03
427 1 16.45332269 1.64500925 10.42242364 6.04911048e-03
428 1 16.55726132 1.66226912 10.48574175 6.99423467e-03
429 1 16.66124100 1.67977621 10.54870010 6.49916941e-03
430 1 16.76523178 1.69748659 10.61152192 6.05139015e-03
431 1 16.86968799 1.71507934 10.67394939 6.07023001e-03
432 1 16.97393308 1.73292755 10.73642042 6.06423220e-03
433 1 17.07835881 1.75072637 10.79853803 6.03339671e-03
434 1 17.18273279 1.76866335 10.86051520 6.06123277e-03
435 1 17.28756861 1.78636182 10.92223458 6.05523286e-03
436 1 17.39232163 1.80444743 10.98371482 6.01539697e-03
437 1 17.49712094 1.82215043 11.04492606 6.05223237e-03
438 1 17.60194549 1.84028552 11.10613840 6.04623034e-03
439 1 17.70726195 1.85840317 11.16716423 5.99739088e-03
440 1 17.81232705 1.87648334 11.22771400 6.03386113e-03
441 1 17.91757118 1.89458484 11.28797067 6.06015229e-03
442 1 18.02310837 1.91287447 11.34822842 6.93292310e-03
443 1 18.12886124 1.93098465 11.40820034 6.60839364e-03
444 1 18.23452813 1.94932472 11.46791662 6.08325267e-03
445 1 18.34029003 1.96748077 11.52752347 5.98999100e-03
446 1 18.44608412 1.98575969 11.58676603 6.02220795e-03
447 1 18.55202727 2.00410427 11.64589887 5.94934321e-03
448 1 18.65803678 2.02268325 11.70483737 6.00521256e-03
449 1 18.76409209 2.04109611 11.76346108 5.96042100e-03
450 1 18.87043150 2.05949086 11.82209661 6.01327673e-03
451 1 18.97664337 2.07788915 11.88045805 6.06616825e-03
452 1 19.08301085 2.09648009 11.93866491 6.09206826e-03
453 1 19.18938974 2.11510323 11.99672952 6.22108889e-03
454 1 19.29580276 2.13368920 12.05461065 6.93510095e-03
455 1 19.40238548 2.15225985 12.11229172 6.55067958e-03
456 1 19.50913264 2.17095898 12.16985882 5.44215936e-03
457 1 19.61575425 2.18970242 12.22731533 5.52453627e-03
458 1 19.72249888 2.20827148 12.28452043 6.09206826e-03
459 1 19.82934903 2.22693608 12.34156313 5.52769247e-03
460 1 19.93615813 2.24570287 12.39851484 5.54504444e-03
461 1 20.04309408 2.26439739 12.45518749 6.09206826e-03
462 1 20.15016827 2.28325825 12.51187449 5.52433613e-03
463 1 20.25713269 2.30200926 12.56836799 5.54169116e-03
464 1 20.36426707 2.32065721 12.62476020 6.09959331e-03
465 1 20.47140578 2.33954046 12.68100094 5.37708140e-03
466 1 20.57849748 2.35836692 12.73718776 5.50601994e-03
467 1 20.68566514 2.37717485 12.79323686 6.09132348e-03
468 1 20.79293857 2.39603649 12.84920444 5.36406280e-03
469 1 20.90016391 2.41490764 12.90508030 5.50114066e-03
470 1 21.00745450 2.43373488 12.96092400 6.07613573e-03
471 1 21.11465785 2.45265473 13.01663822 5.86576563e-03
472 1 21.22195118 2.47152970 13.07231570 5.87763704e-03
473 1 21.32925786 2.49042199 13.12794600 5.79509293e-03
474 1 21.43648069 2.50932656 13.18351068 6.45795830e-03
475 1 21.54377717 2.52820338 13.23902904 6.36067877e-03
476 1 21.65103210 2.54712305 13.29451362 5.01672083e-03
477 1 0.12407427 1.20494488 -0.24468237 -5.06599779e-03
478 1 0.24865206 1.20329000 -0.24529364 -5.96099493e-03
479 1 0.37542099 1.19985385 -0.24047898 -6.06828787e-03
480 1 0.50206552 1.20169415 -0.23397662 -6.09081051e-03
481 1 0.62779760 1.20240884 -0.22349272 -6.09597885e-03
482 1 0.75331656 1.20410469 -0.21118951 -6.09677124e-03
483 1 0.88075345 1.20351275 -0.19475706 -6.09261604e-03
484 1 1.00601317 1.20673229 -0.17670602 -6.09210769e-03
485 1 1.13174634 1.20737347 -0.15334515 -6.09159289e-03
486 1 1.25505183 1.20985421 -0.12931962 -6.09258964e-03
487 1 1.37895951 1.21604049 -0.10473718 -6.11404233e-03
488 1 1.50115080 1.21928597 -0.07576778 -6.12924398e-03
489 1 1.62261332 1.21976607 -0.04544346 -6.13810471e-03
490 1 1.74416747 1.22328456 -0.01390372 -6.10740278e-03
491 1 1.86560079 1.22639751 0.02111877 -6.11299929e-03
492 1 1.98538535 1.23062509 0.06016649 -6.11651709e-03
493 1 2.10511822 1.23337591 0.09702197 -6.10892752e-03
494 1 2.22388855 1.24026627 0.13798945 -6.08383817e-03
495 1 2.34210971 1.24576200 0.18125690 -6.07811671e-03
496 1 2.45799641 1.24957098 0.22655001 -6.12167487e-03
497 1 2.57395854 1.25292527 0.27215152 -6.12891596e-03
498 1 2.68982638 1.25922558 0.31905116 -6.13439434e-03
499 1 2.80463265 1.26540511 0.36934150 -6.11877956e-03
500 1 2.91885905 1.26939489 0.41980839 -6.09486572e-03
501 1 3.03175566 1.27582617 0.47179379 -6.09206826e-03
502 1 3.14522299 1.28151153 0.52538547 -6.09206855e-03
503 1 3.25656251 1.28694804 0.58021441 -6.09206932e-03
504 1 3.36649581 1.29294312 0.63575155 -6.11378764e-03
505 1 3.47819897 1.30112993 0.69307560 -6.10132488e-03
506 1 3.58677439 1.30744277 0.75097874 -6.14015253e-03
507 1 3.69573841 1.31290369 0.80904450 -6.18862768e-03
508 1 3.80317277 1.31993937 0.86928559 -6.20494803e-03
509 1 3.91107187 1.32626969 0.92921617 -6.16689241e-03
510 1 4.01777814 1.33278858 0.99092415 -6.13536340e-03
511 1 4.12463441 1.33947269 1.05272391 -6.09206826e-03
512 1 4.23077393 1.34631876 1.11524026 -6.09528258e-03
513 1 4.33682285 1.35369489 1.17869175 -6.10197805e-03
514 1 4.44238779 1.36076209 1.24331383 -6.09705471e-03
515 1 4.54659537 1.36855172 1.30855961 -6.06436498e-03
516 1 4.65071682 1.37517163 1.37524297 -6.12133674e-03
517 1 4.75385407 1.38302489 1.44134622 -6.20974613e-03
518 1 4.85700990 1.39092351 1.50832085 -6.24802334e-03
519 1 4.95928183 1.39886458 1.57619443 -6.19819175e-03
520 1 5.06149841 1.40591112 1.64485513 -6.15088270e-03
521 1 5.16328303 1.41375275 1.71410295 -6.13301438e-03
522 1 5.26421046 1.42273626 1.78410816 -6.10131989e-03
523 1 5.36517953 1.43064155 1.85467368 -6.05757291e-03
524 1 5.46562603 1.43933527 1.92535807 -6.04491082e-03
525 1 5.56516210 1.44707312 1.99673919 -6.05437557e-03
526 1 5.66505818 1.45602046 2.06836865 -6.06489385e-03
527 1 5.76399761 1.46474912 2.14025489 -6.09206826e-03
528 1 5.86221056 1.47354160 2.21285452 -6.09206826e-03
529 1 5.96016780 1.48191388 2.28589826 -6.09979510e-03
530 1 6.05811294 1.49060723 2.35910835 -6.12512692e-03
531 1 6.15613032 1.49967359 2.43243424 -6.16578501e-03
532 1 6.25373461 1.50822581 2.50616242 -6.26929389e-03
533 1 6.35063897 1.51705965 2.57994903 -6.28695529e-03
534 1 6.44814055 1.52659794 2.65405096 -6.28583704e-03
535 1 6.54504365 1.53557330 2.72834630 -6.23881179e-03
536 1 6.64181852 1.54486474 2.80332280 -6.30184580e-03
537 1 6.73813055 1.55415294 2.87815876 -6.28022129e-03
538 1 6.83412070 1.56356400 2.95346792 -6.24103982e-03
539 1 6.93045613 1.57324730 3.02868461 -6.33470904e-03
540 1 7.02627596 1.58252998 3.10435416 -6.28101331e-03