ITEM: TIMESTEP
0
ITEM: NUMBER OF ATOMS
10710
ITEM: BOX BOUNDS ff ff ff
-2.0 27.602884037569055
-2.0072234117661787 3.211890896947458
-2.2450160183851424 5.54138003088344
ITEM: ATOMS id type x y z q
1 2 0.00000000 0.00000000 0.24527477 3.35542180e-03
2 2 0.00000000 0.00000000 -0.24472523 -3.35542180e-03
3 2 0.00000000 1.21000000 0.24527477 3.41686920e-03
4 2 0.00000000 1.21000000 -0.24472523 -3.41686920e-03
5 1 25.51153599 -0.00722341 3.52857607 3.37776783e-03
6 1 25.60288404 -0.00197284 3.04718832 -3.37776783e-03
7 1 25.50981546 1.20272537 3.54138003 3.41686920e-03
8 1 25.60116589 1.20792344 3.05999300 -3.41686920e-03
9 2 0.00000000 0.00000000 -0.12222523 0.00000000e+00
10 2 0.00000000 0.00000000 0.00027477 0.00000000e+00
11 2 0.00000000 0.00000000 0.12277477 0.00000000e+00
12 2 0.00000000 0.12100000 0.24527477 5.18139194e-03
13 2 0.00000000 0.24200000 0.24527477 5.50362000e-03
14 2 0.00000000 0.36300000 0.24527477 5.01501884e-03
15 2 0.00000000 0.48400000 0.24527477 5.50904170e-03
16 2 0.00000000 0.60500000 0.24527477 6.02408537e-03
17 2 0.00000000 0.72600000 0.24527477 6.86123120e-03
18 2 0.00000000 0.84700000 0.24527477 6.83241897e-03
19 2 0.00000000 0.96800000 0.24527477 5.84994208e-03
20 2 0.00000000 1.08900000 0.24527477 4.96878236e-03
21 2 0.00000000 1.21000000 -0.12222523 0.00000000e+00
22 2 0.00000000 1.21000000 0.00027477 0.00000000e+00
23 2 0.00000000 1.21000000 0.12277477 0.00000000e+00
24 2 0.00000000 0.12100000 -0.24472523 -5.18139194e-03
25 2 0.00000000 0.24200000 -0.24472523 -5.50362000e-03
26 2 0.00000000 0.36300000 -0.24472523 -5.01501884e-03
27 2 0.00000000 0.48400000 -0.24472523 -5.50904170e-03
28 2 0.00000000 0.60500000 -0.24472523 -6.02408537e-03
29 2 0.00000000 0.72600000 -0.24472523 -6.86123120e-03
30 2 0.00000000 0.84700000 -0.24472523 -6.83241897e-03
31 2 0.00000000 0.96800000 -0.24472523 -5.84994208e-03
32 2 0.00000000 1.08900000 -0.24472523 -4.96878236e-03
33 1 25.58004472 -0.00328679 3.16753349 0.00000000e+00
34 1 25.55720907 -0.00459872 3.28787965 0.00000000e+00
35 1 25.53437368 -0.00591034 3.40822748 0.00000000e+00
36 1 25.51136554 0.11376903 3.52986271 5.05002864e-03
37 1 25.51119078 0.23476450 3.53114856 5.64089052e-03
38 1 25.51101786 0.35575869 3.53243456 5.44128437e-03
39 1 25.51084640 0.47675455 3.53371647 6.40224548e-03
40 1 25.51067567 0.59775099 3.53500082 6.88148315e-03
41 1 25.51050315 0.71874639 3.53627976 6.11583422e-03
42 1 25.51033132 0.83974166 3.53755655 5.69198232e-03
43 1 25.51015979 0.96073590 3.53883223 6.01735171e-03
44 1 25.50998857 1.08173190 3.54010719 5.43527194e-03
45 1 25.57832692 1.20662478 3.18033748 0.00000000e+00
46 1 25.55549093 1.20532428 3.30068476 0.00000000e+00
47 1 25.53265543 1.20402423 3.42103187 0.00000000e+00
48 1 25.60270914 0.11901675 3.04847442 -5.05002864e-03
49 1 25.60253813 0.24000651 3.04976091 -5.64089052e-03
50 1 25.60236438 0.36099771 3.05104669 -5.44128437e-03
51 1 25.60219280 0.48198680 3.05232982 -6.40224548e-03
52 1 25.60202179 0.60297558 3.05361130 -6.88148315e-03
53 1 25.60185136 0.72396412 3.05489025 -6.11583422e-03
54 1 25.60167891 0.84495275 3.05616753 -5.69198232e-03
55 1 25.60150760 0.96594307 3.05744298 -6.01735171e-03
56 1 25.60133421 1.08693351 3.05871774 -5.43527194e-03
57 1 0.12260339 0.00068681 -0.24501602 -4.80862070e-03
58 1 0.24529592 0.00122655 -0.24487298 -5.62714142e-03
59 1 0.36800406 0.00131660 -0.24459780 -6.00619986e-03
60 1 0.49086835 0.00130727 -0.24410805 -6.09052560e-03
61 1 0.61362670 0.00134211 -0.24333032 -6.09206826e-03
62 1 0.73642994 0.00159858 -0.24231372 -5.94781856e-03
63 1 0.85919350 0.00186639 -0.24112041 -5.82025544e-03
64 1 0.98193869 0.00169726 -0.23916933 -5.95871849e-03
65 1 1.10495697 0.00174751 -0.23733875 -6.09232315e-03
66 1 1.22781259 0.00163930 -0.23530906 -6.09205550e-03
67 1 1.35056247 0.00172401 -0.23286516 -6.08598370e-03
68 1 1.47337643 0.00194481 -0.22989236 -6.07933546e-03
69 1 1.59611098 0.00198017 -0.22712833 -6.08488133e-03
70 1 1.71885223 0.00195333 -0.22390046 -6.08161608e-03
71 1 1.84153884 0.00195567 -0.22044176 -6.08881076e-03
72 1 1.96450343 0.00189131 -0.21666659 -6.09207793e-03
73 1 2.08731197 0.00194758 -0.21275055 -6.09206431e-03
74 1 2.21011186 0.00214764 -0.20837024 -6.09206920e-03
75 1 2.33287122 0.00212068 -0.20389713 -6.09206749e-03
76 1 2.45551633 0.00204519 -0.19917956 -6.09206826e-03
77 1 2.57811267 0.00204058 -0.19426761 -6.09206901e-03
78 1 2.70083034 0.00181644 -0.18917800 -6.08547783e-03
79 1 2.82346037 0.00190461 -0.18384135 -6.07797420e-03
80 1 2.94608031 0.00217736 -0.17826906 -6.08460882e-03
81 1 3.06869840 0.00203434 -0.17248851 -6.08123045e-03
82 1 3.19125170 0.00209737 -0.16641464 -6.08867780e-03
83 1 3.31376361 0.00214354 -0.16012151 -6.09206866e-03
84 1 3.43638179 0.00217284 -0.15358689 -6.09206839e-03
85 1 3.55886711 0.00203898 -0.14698009 -6.09206833e-03
86 1 3.68143810 0.00192644 -0.14005468 -6.09206826e-03
87 1 3.80405816 0.00212403 -0.13296673 -6.09206824e-03
88 1 3.92653862 0.00217944 -0.12576267 -6.09206825e-03
89 1 4.04904984 0.00200630 -0.11841970 -6.10477040e-03
90 1 4.17153948 0.00217647 -0.11084303 -6.10144793e-03
91 1 4.29388604 0.00216906 -0.10299986 -6.09206826e-03
92 1 4.41640972 0.00211812 -0.09511628 -6.08473760e-03
93 1 4.53872244 0.00210360 -0.08698496 -6.07718969e-03
94 1 4.66111575 0.00219199 -0.07859980 -6.08430762e-03
95 1 4.78346343 0.00227974 -0.07012942 -6.08084602e-03
96 1 4.90587244 0.00222774 -0.06155566 -6.08857506e-03
97 1 5.02829978 0.00240553 -0.05268874 -6.09439460e-03
98 1 5.15068397 0.00227158 -0.04363396 -6.09360296e-03
99 1 5.27299240 0.00232284 -0.03426384 -6.10212083e-03
100 1 5.39536282 0.00225527 -0.02489100 -6.09455787e-03
101 1 5.51758218 0.00243958 -0.01535499 -6.08457013e-03
102 1 5.63981657 0.00240204 -0.00558563 -6.08334006e-03
103 1 5.76224754 0.00236488 0.00445048 -6.09025173e-03
104 1 5.88439552 0.00237819 0.01456214 -6.09206826e-03
105 1 6.00660578 0.00238226 0.02480124 -6.09206826e-03
106 1 6.12879937 0.00253343 0.03525762 -6.08838437e-03
107 1 6.25091342 0.00254187 0.04585560 -6.09329454e-03
108 1 6.37319542 0.00240278 0.05656468 -6.09400483e-03
109 1 6.49537207 0.00250626 0.06749192 -6.08872179e-03
110 1 6.61760591 0.00260831 0.07869539 -6.08812243e-03
111 1 6.73963100 0.00263134 0.08999421 -6.09206826e-03
112 1 6.86177295 0.00262278 0.10132596 -6.09206826e-03
113 1 6.98378069 0.00261296 0.11282647 -6.09206826e-03
114 1 7.10575889 0.00268858 0.12465205 -6.06302327e-03
115 1 7.22782041 0.00253682 0.13654387 -6.06302327e-03
116 1 7.34990989 0.00256381 0.14864087 -5.90236529e-03
117 1 7.47189435 0.00259931 0.16089830 -5.81608564e-03
118 1 7.59384566 0.00261961 0.17322872 -6.10035823e-03
119 1 7.71584506 0.00261363 0.18572733 -5.08741334e-03
120 1 7.83774331 0.00260475 0.19836177 -6.87719096e-03
121 1 7.95958798 0.00266874 0.21112434 -5.18694999e-03
122 1 8.08160788 0.00255688 0.22394114 -5.00655937e-03
123 1 8.20343885 0.00260605 0.23700267 -7.17602109e-03
124 1 8.32531137 0.00272163 0.25016080 -5.64123658e-03
125 1 8.44728655 0.00275777 0.26345257 -5.91249038e-03
126 1 8.56905619 0.00269898 0.27686635 -5.77202514e-03
127 1 8.69083896 0.00271816 0.29039843 -5.95689302e-03
128 1 8.81271976 0.00278744 0.30405062 -6.09206826e-03
129 1 8.93453225 0.00266820 0.31789455 -6.09206826e-03
130 1 9.05628343 0.00267784 0.33181947 -6.09206826e-03
131 1 9.17801529 0.00272619 0.34583971 -6.00199927e-03
132 1 9.29982522 0.00290701 0.35998691 -6.06987486e-03
133 1 9.42159414 0.00292507 0.37430468 -5.02835518e-03
134 1 9.54329427 0.00290610 0.38873981 -6.79157831e-03
135 1 9.66491292 0.00302432 0.40339641 -4.92113473e-03
136 1 9.78664897 0.00292661 0.41808392 -5.56259368e-03
137 1 9.90837492 0.00284690 0.43296833 -5.94323360e-03
138 1 10.03006640 0.00295928 0.44805381 -5.00637084e-03
139 1 10.15160241 0.00289229 0.46310969 -6.75640181e-03
140 1 10.27316709 0.00278886 0.47833273 -4.91035923e-03
141 1 10.39470028 0.00277916 0.49370931 -5.75765677e-03
142 1 10.51627654 0.00279540 0.50910138 -6.37465021e-03
143 1 10.63783054 0.00288704 0.52459436 -6.33172667e-03
144 1 10.75932708 0.00292152 0.54021814 -5.77695765e-03
145 1 10.88089550 0.00302776 0.55593708 -5.75602868e-03
146 1 11.00239070 0.00298202 0.57173441 -5.94989338e-03
147 1 11.12380684 0.00293870 0.58778883 -6.09206826e-03
148 1 11.24529309 0.00305524 0.60391104 -6.09206826e-03
149 1 11.36675438 0.00297191 0.62016172 -6.49862787e-03
150 1 11.48822082 0.00302773 0.63656422 -6.47806478e-03
151 1 11.60964624 0.00292681 0.65297892 -5.98398651e-03
152 1 11.73109836 0.00299898 0.66958054 -5.97118729e-03
153 1 11.85245759 0.00291657 0.68622293 -6.32827249e-03
154 1 11.97382474 0.00292435 0.70292970 -6.38296841e-03
155 1 12.09520008 0.00305569 0.71974493 -6.09206826e-03
156 1 12.21653193 0.00294165 0.73675624 -5.92176613e-03
157 1 12.33781802 0.00297194 0.75379449 -5.84196899e-03
158 1 12.45902865 0.00294594 0.77093190 -5.89327746e-03
159 1 12.58036081 0.00297899 0.78825526 -4.96011300e-03
160 1 12.70160253 0.00298735 0.80558669 -6.65158567e-03
161 1 12.82282892 0.00297864 0.82307677 -4.90989307e-03
162 1 12.94413857 0.00296153 0.84058355 -5.52395043e-03
163 1 13.06536299 0.00303454 0.85824489 -5.87068470e-03
164 1 13.18655932 0.00302273 0.87596562 -4.88602194e-03
165 1 13.30771716 0.00304617 0.89379803 -6.40279006e-03
166 1 13.42887984 0.00301977 0.91168855 -5.12407601e-03
167 1 13.55002247 0.00298048 0.92970932 -4.88216806e-03
168 1 13.67115480 0.00295985 0.94777754 -6.38017819e-03
169 1 13.79226208 0.00304461 0.96595782 -5.11373203e-03
170 1 13.91335759 0.00299289 0.98423600 -4.85398664e-03
171 1 14.03446972 0.00297041 1.00259081 -6.35577596e-03
172 1 14.15549472 0.00302915 1.02107145 -5.10698016e-03
173 1 14.27658759 0.00293579 1.03956887 -4.85870271e-03
174 1 14.39761152 0.00293652 1.05825705 -6.37702085e-03
175 1 14.51864360 0.00285119 1.07691435 -5.10092274e-03
176 1 14.63964956 0.00288158 1.09568339 -4.84968636e-03
177 1 14.76061794 0.00290286 1.11455353 -6.37599125e-03
178 1 14.88163332 0.00289243 1.13348550 -4.87710407e-03
179 1 15.00263721 0.00289181 1.15252946 -5.56677439e-03
180 1 15.12361928 0.00280325 1.17161071 -5.93477518e-03
181 1 15.24457324 0.00285232 1.19080870 -6.09206826e-03
182 1 15.36551931 0.00280179 1.21006010 -6.09206826e-03
183 1 15.48643106 0.00282257 1.22939138 -5.98211588e-03
184 1 15.60730774 0.00279021 1.24881164 -5.88223740e-03
185 1 15.72820462 0.00279370 1.26834904 -5.93479953e-03
186 1 15.84909833 0.00265540 1.28795606 -4.77734034e-03
187 1 15.96992151 0.00265132 1.30760966 -6.31776323e-03
188 1 16.09076484 0.00267623 1.32731684 -4.85845554e-03
189 1 16.21162913 0.00267562 1.34714404 -5.48045656e-03
190 1 16.33244685 0.00262308 1.36702384 -5.74774533e-03
191 1 16.45320630 0.00255854 1.38699295 -5.91938606e-03
192 1 16.57402305 0.00249867 1.40708258 -4.72601755e-03
193 1 16.69481538 0.00250457 1.42720235 -6.44309587e-03
194 1 16.81553111 0.00247113 1.44736160 -5.21392668e-03
195 1 16.93627534 0.00242864 1.46754694 -4.32492230e-03
196 1 17.05702637 0.00239472 1.48783868 -6.11554878e-03
197 1 17.17772429 0.00235829 1.50822758 -5.20526136e-03
198 1 17.29849119 0.00233733 1.52867113 -4.31230685e-03
199 1 17.41915294 0.00230456 1.54912973 -6.11716232e-03
200 1 17.53980247 0.00232892 1.56972516 -5.69773107e-03
201 1 17.66048809 0.00222465 1.59034578 -5.99314584e-03
202 1 17.78117053 0.00222310 1.61104960 -4.76350900e-03
203 1 17.90179627 0.00214976 1.63186168 -5.21120302e-03
204 1 18.02244630 0.00211689 1.65266032 -6.01204532e-03
205 1 18.14303340 0.00206005 1.67352622 -5.73233737e-03
206 1 18.26366226 0.00197208 1.69447283 -5.81943467e-03
207 1 18.38421945 0.00195587 1.71547701 -6.32655047e-03
208 1 18.50485100 0.00189329 1.73655101 -5.03614005e-03
209 1 18.62540971 0.00184407 1.75761772 -4.70280803e-03
210 1 18.74593613 0.00179508 1.77881148 -8.65683464e-03
211 1 18.86649812 0.00178250 1.80001926 -5.94692004e-03
212 1 18.98699468 0.00172250 1.82133668 -5.65885778e-03
213 1 19.10755970 0.00166720 1.84263997 -5.99277035e-03
214 1 19.22805480 0.00157700 1.86404830 -6.04066598e-03
215 1 19.34852697 0.00149974 1.88547454 -6.09206826e-03
216 1 19.46905353 0.00152304 1.90699129 -6.09206826e-03
217 1 19.58949784 0.00147221 1.92851679 -6.09206826e-03
218 1 19.70998228 0.00136881 1.95008315 -5.94140402e-03
219 1 19.83043038 0.00129259 1.97170483 -6.09135703e-03
220 1 19.95086931 0.00125297 1.99337567 -6.09135703e-03
221 1 20.07133080 0.00119907 2.01509017 -6.09206826e-03
222 1 20.19175492 0.00113642 2.03684650 -6.22362401e-03
223 1 20.31214037 0.00111865 2.05865309 -6.30618064e-03
224 1 20.43255894 0.00103220 2.08049328 -6.16079228e-03
225 1 20.55295716 0.00095036 2.10236152 -6.90076158e-03
226 1 20.67333062 0.00089735 2.12427565 -7.19612184e-03
227 1 20.79372348 0.00084093 2.14622550 -6.17999120e-03
228 1 20.91409666 0.00080527 2.16822434 -5.85545161e-03
229 1 21.03445318 0.00073670 2.19025438 -6.04373412e-03
230 1 21.15481993 0.00070117 2.21234823 -6.05837687e-03
231 1 21.27517692 0.00061456 2.23446631 -6.22625934e-03
232 1 21.39549668 0.00053352 2.25661308 -6.96326852e-03
233 1 21.51584046 0.00047064 2.27878406 -6.60839364e-03
234 1 21.63614024 0.00042107 2.30102161 -6.08325267e-03
235 1 21.75643580 0.00035053 2.32330222 -5.98999100e-03
236 1 21.87674307 0.00029690 2.34559241 -6.02220795e-03
237 1 21.99703600 0.00020383 2.36792317 -5.94934321e-03
238 1 22.11731803 0.00012902 2.39027971 -6.23085673e-03
239 1 22.23757554 0.00006579 2.41265405 -5.91383044e-03
240 1 22.35786265 0.00001198 2.43506375 -5.82022831e-03
241 1 22.47811657 -0.00007116 2.45748973 -6.06616825e-03
242 1 22.59838197 -0.00016721 2.47996921 -6.09206826e-03
243 1 22.71861178 -0.00022784 2.50245908 -6.22108889e-03
244 1 22.83885150 -0.00026359 2.52496054 -6.93510095e-03
245 1 22.95907475 -0.00033221 2.54750501 -6.55067958e-03
246 1 23.07931856 -0.00041659 2.57005142 -5.44215936e-03
247 1 23.19952191 -0.00047788 2.59262551 -5.52453627e-03
248 1 23.31974638 -0.00053094 2.61522648 -6.11677386e-03
249 1 23.43993911 -0.00060926 2.63783792 -5.40422112e-03
250 1 23.56014876 -0.00069960 2.66047922 -5.51625079e-03
251 1 23.68035082 -0.00077709 2.68314242 -6.10817079e-03
252 1 23.80054025 -0.00085443 2.70581961 -5.39058303e-03
253 1 23.92072361 -0.00092367 2.72851253 -5.51111698e-03
254 1 24.04091240 -0.00100963 2.75121419 -6.09959331e-03
255 1 24.16108489 -0.00108701 2.77392650 -5.37708140e-03
256 1 24.28125738 -0.00113966 2.79665942 -5.50601994e-03
257 1 24.40142429 -0.00121949 2.81939089 -6.09132348e-03
258 1 24.52158634 -0.00130237 2.84214124 -5.36406280e-03
259 1 24.64174408 -0.00137238 2.86490628 -5.50114066e-03
260 1 24.76189161 -0.00144941 2.88767483 -6.07613573e-03
261 1 24.88204288 -0.00152317 2.91045051 -5.86576563e-03
262 1 25.00218942 -0.00160338 2.93323062 -5.87763703e-03
263 1 25.12233768 -0.00167717 2.95601534 -5.79509293e-03
264 1 25.24247680 -0.00175159 2.97880523 -6.45795830e-03
265 1 25.36261672 -0.00182837 3.00159810 -6.36067877e-03
266 1 25.48275163 -0.00190267 3.02439143 -5.01672083e-03
267 1 0.12204892 -0.00049673 0.24492853 4.80862070e-03
268 1 0.24403099 -0.00095293 0.24492683 5.62714142e-03
269 1 0.36599073 -0.00096748 0.24510553 6.00619986e-03
270 1 0.48790112 -0.00103967 0.24583801 6.09052560e-03
271 1 0.60956093 -0.00136113 0.24663438 6.09206826e-03
272 1 0.73147152 -0.00152566 0.24760094 5.94781856e-03
273 1 0.85334558 -0.00158892 0.24903265 5.82025544e-03
274 1 0.97499915 -0.00133468 0.25053046 5.95871849e-03
275 1 1.09668707 -0.00132992 0.25246368 6.09232315e-03
276 1 1.21850533 -0.00140424 0.25477732 6.09205550e-03
277 1 1.34027588 -0.00128137 0.25705465 6.08598370e-03
278 1 1.46213926 -0.00141786 0.25959549 6.07933546e-03
279 1 1.58402182 -0.00150005 0.26258912 6.08488133e-03
280 1 1.70561447 -0.00149907 0.26572050 6.08161608e-03
281 1 1.82742564 -0.00163467 0.26923743 6.08881076e-03
282 1 1.94931703 -0.00173249 0.27296497 6.09207793e-03
283 1 2.07076901 -0.00163886 0.27680431 6.09206431e-03
284 1 2.19266214 -0.00142010 0.28095624 6.09206920e-03
285 1 2.31444820 -0.00150169 0.28551174 6.09206749e-03
286 1 2.43628490 -0.00148557 0.29027488 6.09206826e-03
287 1 2.55809070 -0.00143399 0.29507128 6.09206901e-03
288 1 2.67996547 -0.00154630 0.30035136 6.08547783e-03
289 1 2.80164142 -0.00150989 0.30558640 6.07797420e-03
290 1 2.92337593 -0.00145153 0.31117764 6.08460882e-03
291 1 3.04518404 -0.00131548 0.31691129 6.08123045e-03
292 1 3.16700502 -0.00128618 0.32301386 6.08867780e-03
293 1 3.28861911 -0.00132209 0.32914529 6.09206866e-03
294 1 3.41035095 -0.00147370 0.33551118 6.09206839e-03
295 1 3.53207825 -0.00132735 0.34217378 6.09206833e-03
296 1 3.65382602 -0.00136279 0.34902370 6.09206826e-03
297 1 3.77565593 -0.00140793 0.35605728 6.09206824e-03
298 1 3.89728810 -0.00148429 0.36321754 6.09206825e-03
299 1 4.01899693 -0.00146202 0.37064421 6.10477040e-03
300 1 4.14058929 -0.00135964 0.37817064 6.10144793e-03
301 1 4.26240081 -0.00133894 0.38590617 6.09206826e-03
302 1 4.38416004 -0.00132495 0.39381915 6.08473760e-03
303 1 4.50589402 -0.00146622 0.40174402 6.07718969e-03
304 1 4.62764595 -0.00163878 0.40997600 6.08430762e-03
305 1 4.74928200 -0.00134938 0.41847981 6.08084602e-03
306 1 4.87090601 -0.00140552 0.42710435 6.08857506e-03
307 1 4.99252756 -0.00151259 0.43597673 6.09439460e-03
308 1 5.11417050 -0.00158545 0.44501002 6.09360296e-03
309 1 5.23574599 -0.00136794 0.45411367 6.10212083e-03
310 1 5.35724968 -0.00144882 0.46347898 6.09455787e-03
311 1 5.47888522 -0.00146205 0.47302017 6.08457013e-03
312 1 5.60051297 -0.00141252 0.48272371 6.08334006e-03
313 1 5.72203941 -0.00141532 0.49255851 6.09025173e-03
314 1 5.84362279 -0.00151104 0.50259509 6.09206826e-03
315 1 5.96530367 -0.00156362 0.51284056 6.09206826e-03
316 1 6.08681851 -0.00152873 0.52319440 6.08838437e-03
317 1 6.20829883 -0.00142083 0.53385271 6.09329454e-03
318 1 6.32970652 -0.00167538 0.54462537 6.09400483e-03
319 1 6.45127379 -0.00167380 0.55547520 6.08872179e-03
320 1 6.57284078 -0.00165196 0.56646410 6.08812243e-03
321 1 6.69425545 -0.00156799 0.57754534 6.09206826e-03
322 1 6.81574053 -0.00160159 0.58896901 6.09206826e-03
323 1 6.93723854 -0.00149450 0.60058601 6.09206826e-03
324 1 7.05861714 -0.00153740 0.61228285 6.06302327e-03
325 1 7.18001438 -0.00147760 0.62414385 6.06302327e-03
326 1 7.30140011 -0.00147773 0.63612518 5.90236529e-03
327 1 7.42286460 -0.00143012 0.64831280 5.81608564e-03
328 1 7.54432316 -0.00132870 0.66062729 6.10035823e-03
329 1 7.66565507 -0.00144356 0.67309745 5.08741347e-03
330 1 7.78717856 -0.00147737 0.68556575 6.88423117e-03
331 1 7.90851780 -0.00140901 0.69837620 4.95164977e-03
332 1 8.02975560 -0.00140024 0.71110362 5.63292633e-03
333 1 8.15112152 -0.00147530 0.72410978 5.95654755e-03
334 1 8.27248932 -0.00148384 0.73719888 6.00432988e-03
335 1 8.39382464 -0.00142956 0.75041201 6.08757506e-03
336 1 8.51513825 -0.00142376 0.76379676 5.05700823e-03
337 1 8.63647603 -0.00152902 0.77724282 6.83715280e-03
338 1 8.75775362 -0.00146295 0.79079613 4.93632937e-03
339 1 8.87909413 -0.00155738 0.80460412 5.62467055e-03
340 1 9.00031645 -0.00165152 0.81844244 5.95386311e-03
341 1 9.12148965 -0.00163548 0.83247492 6.00199927e-03
342 1 9.24278524 -0.00165105 0.84662855 6.06987486e-03
343 1 9.36388139 -0.00169008 0.86088709 5.01509653e-03
344 1 9.48517185 -0.00164610 0.87522056 6.78511241e-03
345 1 9.60635109 -0.00170184 0.88972953 4.92113473e-03
346 1 9.72754042 -0.00174891 0.90446425 5.61645056e-03
347 1 9.84864693 -0.00165685 0.91929183 5.95118153e-03
348 1 9.96979785 -0.00170736 0.93417483 6.09206826e-03
349 1 10.09086901 -0.00167987 0.94929115 6.09206826e-03
350 1 10.21199706 -0.00171173 0.96440441 6.09206826e-03
351 1 10.33318079 -0.00168119 0.97969040 6.50085567e-03
352 1 10.45430519 -0.00169516 0.99503508 6.38496347e-03
353 1 10.57547201 -0.00172061 1.01048932 5.77251663e-03
354 1 10.69649733 -0.00175453 1.02606937 5.73476969e-03
355 1 10.81762995 -0.00179067 1.04175631 5.94888879e-03
356 1 10.93869254 -0.00192613 1.05754841 6.09206826e-03
357 1 11.05970113 -0.00184002 1.07345962 6.09206826e-03
358 1 11.18074748 -0.00188757 1.08953233 6.09206826e-03
359 1 11.30173261 -0.00196802 1.10568810 6.09206826e-03
360 1 11.42262927 -0.00191661 1.12203790 4.98457375e-03
361 1 11.54368273 -0.00188491 1.13844059 6.69756871e-03
362 1 11.66470702 -0.00185173 1.15494789 5.15375987e-03
363 1 11.78560329 -0.00188219 1.17151295 4.95985007e-03
364 1 11.90653805 -0.00190920 1.18816546 6.48212442e-03
365 1 12.02753345 -0.00196848 1.20501628 5.14927068e-03
366 1 12.14844513 -0.00191860 1.22189243 4.95341033e-03
367 1 12.26934327 -0.00206728 1.23894384 6.46347279e-03
368 1 12.39019970 -0.00194620 1.25600021 5.14043101e-03
369 1 12.51103524 -0.00205184 1.27323681 4.91020010e-03
370 1 12.63199413 -0.00201508 1.29051437 6.45556760e-03
371 1 12.75289663 -0.00203040 1.30792491 4.90989307e-03
372 1 12.87375618 -0.00209022 1.32543636 5.52395043e-03
373 1 12.99458967 -0.00205104 1.34301995 5.87068470e-03
374 1 13.11536354 -0.00205655 1.36072941 4.87920209e-03
375 1 13.23619489 -0.00211254 1.37848756 6.41661913e-03
376 1 13.35698754 -0.00211990 1.39635507 4.89988333e-03
377 1 13.47780346 -0.00209431 1.41426908 5.51681014e-03
378 1 13.59860040 -0.00210097 1.43231464 5.85936171e-03
379 1 13.71930500 -0.00215616 1.45048361 4.85938456e-03
380 1 13.84003895 -0.00214873 1.46865510 6.38254444e-03
381 1 13.96083322 -0.00223545 1.48692664 4.88995824e-03
382 1 14.08157517 -0.00225040 1.50535652 5.57476230e-03
383 1 14.20227471 -0.00216220 1.52385306 5.93743790e-03
384 1 14.32294836 -0.00231861 1.54240221 5.98766457e-03
385 1 14.44364454 -0.00232414 1.56100908 5.96043235e-03
386 1 14.56431778 -0.00228963 1.57978627 4.81637844e-03
387 1 14.68503511 -0.00234716 1.59865633 6.34214196e-03
388 1 14.80572171 -0.00234305 1.61750013 4.87620659e-03
389 1 14.92637141 -0.00235870 1.63645178 5.56677439e-03
390 1 15.04701904 -0.00244548 1.65547326 5.93477518e-03
391 1 15.16760724 -0.00247612 1.67461266 5.98532808e-03
392 1 15.28822753 -0.00246104 1.69383982 5.94249673e-03
393 1 15.40880297 -0.00254439 1.71312291 4.79106117e-03
394 1 15.52939266 -0.00261412 1.73252622 6.34873408e-03
395 1 15.64992385 -0.00252022 1.75199234 5.10720957e-03
396 1 15.77046647 -0.00264030 1.77155642 4.79385489e-03
397 1 15.89103709 -0.00271817 1.79114322 6.33054845e-03
398 1 16.01162601 -0.00279046 1.81086875 5.10009402e-03
399 1 16.13209109 -0.00281160 1.83059804 4.78369059e-03
400 1 16.25267748 -0.00278402 1.85042746 6.31203828e-03
401 1 16.37319809 -0.00283628 1.87032591 5.09300092e-03
402 1 16.49363893 -0.00284818 1.89030082 4.74903927e-03
403 1 16.61412251 -0.00289190 1.91041051 6.32830758e-03
404 1 16.73466754 -0.00291529 1.93050510 5.08343922e-03
405 1 16.85515227 -0.00296731 1.95075123 4.32591159e-03
406 1 16.97559488 -0.00307019 1.97098846 6.00104739e-03
407 1 17.09607135 -0.00303331 1.99133176 5.21119202e-03
408 1 17.21643950 -0.00314294 2.01169384 6.09206826e-03
409 1 17.33691002 -0.00320556 2.03214511 6.05153388e-03
410 1 17.45729644 -0.00321046 2.05265445 5.91774538e-03
411 1 17.57774223 -0.00327927 2.07322569 6.22305381e-03
412 1 17.69815827 -0.00328921 2.09391735 5.03791106e-03
413 1 17.81853799 -0.00335872 2.11465319 4.72607940e-03
414 1 17.93895576 -0.00337348 2.13542752 8.71836332e-03
415 1 18.05933850 -0.00346590 2.15627188 5.95355142e-03
416 1 18.17971053 -0.00348058 2.17715698 5.36960420e-03
417 1 18.30007461 -0.00361295 2.19811181 6.03255871e-03
418 1 18.42041701 -0.00364189 2.21910553 5.00245570e-03
419 1 18.54071331 -0.00371195 2.24016451 4.70280803e-03
420 1 18.66105354 -0.00370234 2.26131918 8.65685956e-03
421 1 18.78137424 -0.00376510 2.28252584 5.94692135e-03
422 1 18.90171767 -0.00384406 2.30374390 5.65886656e-03
423 1 19.02204031 -0.00388273 2.32506296 5.98663784e-03
424 1 19.14229527 -0.00393244 2.34643285 6.03862808e-03
425 1 19.26258709 -0.00400783 2.36782627 6.08821513e-03
426 1 19.38290720 -0.00405186 2.38927271 6.17296108e-03
427 1 19.50321315 -0.00411231 2.41079306 6.04911048e-03
428 1 19.62347836 -0.00411859 2.43232458 6.99423467e-03
429 1 19.74375297 -0.00416979 2.45392290 6.49916941e-03
430 1 19.86402783 -0.00424418 2.47555843 6.05139015e-03
431 1 19.98425388 -0.00427603 2.49727980 6.07023001e-03
432 1 20.10451075 -0.00436167 2.51897905 6.06423220e-03
433 1 20.22475928 -0.00442672 2.54074807 6.03339671e-03
434 1 20.34502207 -0.00451085 2.56253518 6.06123277e-03
435 1 20.46523264 -0.00453382 2.58439135 6.05523286e-03
436 1 20.58545777 -0.00462312 2.60628504 6.01539697e-03
437 1 20.70569996 -0.00464688 2.62822170 6.05223237e-03
438 1 20.82592837 -0.00473504 2.65016181 6.04623034e-03
439 1 20.94609573 -0.00479327 2.67216574 5.99739088e-03
440 1 21.06632323 -0.00485408 2.69422320 6.03386113e-03
441 1 21.18653801 -0.00491432 2.71632998 6.06015229e-03
442 1 21.30670611 -0.00499263 2.73844837 6.93292310e-03
443 1 21.42686338 -0.00502957 2.76062317 6.60839364e-03
444 1 21.54703845 -0.00510703 2.78282765 6.08325267e-03
445 1 21.66720909 -0.00514900 2.80505501 5.98999100e-03
446 1 21.78738984 -0.00520716 2.82732941 6.02220795e-03
447 1 21.90755489 -0.00526556 2.84962832 5.94934321e-03
448 1 22.02771521 -0.00535343 2.87195931 6.00521256e-03
449 1 22.14788730 -0.00540950 2.89434287 5.96042100e-03
450 1 22.26802181 -0.00546070 2.91672435 6.01327673e-03
451 1 22.38818300 -0.00550551 2.93914755 6.06616825e-03
452 1 22.50833077 -0.00558173 2.96158781 6.09206826e-03
453 1 22.62848059 -0.00565114 2.98405940 6.22108889e-03
454 1 22.74863445 -0.00571782 3.00654811 6.93510095e-03
455 1 22.86877365 -0.00577954 3.02906519 6.55067958e-03
456 1 22.98889173 -0.00584647 3.05160757 5.44215936e-03
457 1 23.10903382 -0.00592241 3.07415859 5.52453627e-03
458 1 23.22917308 -0.00597330 3.09674381 6.09206826e-03
459 1 23.34930005 -0.00603067 3.11935421 5.52769247e-03
460 1 23.46943104 -0.00610412 3.14197300 5.54504444e-03
461 1 23.58956271 -0.00616384 3.16463055 6.09206826e-03
462 1 23.70967308 -0.00623755 3.18729058 5.52433613e-03
463 1 23.82980732 -0.00630152 3.20996800 5.54169116e-03
464 1 23.94992688 -0.00635106 3.23265839 6.09959331e-03
465 1 24.07004801 -0.00642716 3.25536519 5.37708140e-03
466 1 24.19017683 -0.00649181 3.27808610 5.50601994e-03
467 1 24.31030138 -0.00655810 3.30082179 6.09132348e-03
468 1 24.43041598 -0.00662307 3.32356778 5.36406280e-03
469 1 24.55054059 -0.00668899 3.34632245 5.50114066e-03
470 1 24.67065828 -0.00675117 3.36908008 6.07613573e-03
471 1 24.79078761 -0.00682174 3.39185259 5.86576563e-03
472 1 24.91090943 -0.00688517 3.41463067 5.87763704e-03
473 1 25.03103146 -0.00694967 3.43741041 5.79509293e-03
474 1 25.15115704 -0.00701941 3.46019993 6.45795830e-03
475 1 25.27128145 -0.00708579 3.48298892 6.36067877e-03
476 1 25.39140834 -0.00715291 3.50578158 5.01672083e-03
477 1 0.12254639 1.20942986 -0.24468625 -5.06599779e-03
478 1 0.24512817 1.20919692 -0.24472198 -5.96099493e-03
479 1 0.36792823 1.20877188 -0.24429246 -6.06828787e-03
480 1 0.49075445 1.20888234 -0.24371779 -6.09081051e-03
481 1 0.61352913 1.20885868 -0.24274676 -6.09597885e-03
482 1 0.73629734 1.20891517 -0.24161805 -6.09677124e-03
483 1 0.85931007 1.20867733 -0.24010236 -6.09261604e-03
484 1 0.98214624 1.20883458 -0.23840906 -6.09210769e-03
485 1 1.10511980 1.20865624 -0.23616501 -6.09159289e-03
486 1 1.22784569 1.20867523 -0.23385275 -6.09258964e-03
487 1 1.35067212 1.20908420 -0.23149009 -6.11404233e-03
488 1 1.47340901 1.20913344 -0.22861661 -6.12924398e-03
489 1 1.59607538 1.20885825 -0.22557819 -6.13810471e-03
490 1 1.71881341 1.20889597 -0.22239564 -6.10740278e-03
491 1 1.84163957 1.20883249 -0.21883418 -6.11299929e-03
492 1 1.96445616 1.20889775 -0.21477132 -6.11651709e-03
493 1 2.08716201 1.20878204 -0.21096621 -6.10892752e-03
494 1 2.20991793 1.20913950 -0.20666905 -6.08383817e-03
495 1 2.33271984 1.20928078 -0.20206733 -6.07811671e-03
496 1 2.45534615 1.20917655 -0.19714157 -6.12167487e-03
497 1 2.57792395 1.20901591 -0.19218832 -6.12891596e-03
498 1 2.70061169 1.20921534 -0.18705635 -6.13439434e-03
499 1 2.82337442 1.20936648 -0.18148592 -6.11877956e-03
500 1 2.94602331 1.20918622 -0.17576813 -6.09486572e-03
501 1 3.06862650 1.20936266 -0.16986308 -6.09206826e-03
502 1 3.19138724 1.20934670 -0.16371413 -6.09206855e-03
503 1 3.31393986 1.20933281 -0.15729490 -6.09206932e-03
504 1 3.43633914 1.20939334 -0.15070380 -6.11378764e-03
505 1 3.55915046 1.20968485 -0.14396439 -6.10132488e-03
506 1 3.68152725 1.20975667 -0.13694696 -6.14015253e-03
507 1 3.80399119 1.20964847 -0.12986947 -6.18862768e-03
508 1 3.92638235 1.20982060 -0.12234415 -6.20494803e-03
509 1 4.04881786 1.20981779 -0.11493768 -6.16689241e-03
510 1 4.17117950 1.20982048 -0.10715878 -6.13536340e-03
511 1 4.29360992 1.20978911 -0.09934002 -6.09206826e-03
512 1 4.41597663 1.20977389 -0.09131842 -6.09528258e-03
513 1 4.53843265 1.20993058 -0.08318945 -6.10197805e-03
514 1 4.66092496 1.20985988 -0.07483739 -6.09705471e-03
515 1 4.78325189 1.20995631 -0.06623819 -6.06436498e-03
516 1 4.90572880 1.20983230 -0.05735726 -6.12133674e-03
517 1 5.02797848 1.20995392 -0.04845300 -6.20974613e-03
518 1 5.15030672 1.21007341 -0.03932374 -6.24802334e-03
519 1 5.27254386 1.21013035 -0.02997486 -6.19819175e-03
520 1 5.39491887 1.20993827 -0.02046818 -6.15088270e-03
521 1 5.51728942 1.21000338 -0.01078522 -6.13301438e-03
522 1 5.63951103 1.21020465 -0.00092157 -6.10131989e-03
523 1 5.76185546 1.21018670 0.00912084 -6.05757291e-03
524 1 5.88407290 1.21031638 0.01932671 -6.04491082e-03
525 1 6.00619241 1.21027124 0.02983063 -6.05437557e-03
526 1 6.12846181 1.21044140 0.04033900 -6.06489385e-03
527 1 6.25057274 1.21052691 0.05103352 -6.09206826e-03
528 1 6.37271799 1.21061925 0.06194187 -6.09206826e-03
529 1 6.49488342 1.21046851 0.07301415 -6.09979510e-03
530 1 6.61695291 1.21051737 0.08425213 -6.12512692e-03
531 1 6.73907385 1.21065747 0.09559738 -6.16578501e-03
532 1 6.86117778 1.21055321 0.10724814 -6.26929389e-03
533 1 6.98312325 1.21059530 0.11888142 -6.28695529e-03
534 1 7.10526279 1.21078521 0.13056821 -6.28583704e-03
535 1 7.22727241 1.21071336 0.14253089 -6.23881179e-03
536 1 7.34937222 1.21075529 0.15468698 -6.30184580e-03