ITEM: TIMESTEP
0
ITEM: NUMBER OF ATOMS
10710
ITEM: BOX BOUNDS ff ff ff
-2.0 25.3403532892344
-2.007676285691395 3.3691262282370884
-2.2459978617584446 12.962289751818684
ITEM: ATOMS id type x y z q
1 2 0.00000000 0.00000000 0.24527477 3.35542180e-03
2 2 0.00000000 0.00000000 -0.24472523 -3.35542180e-03
3 2 0.00000000 1.21000000 0.24527477 3.41686920e-03
4 2 0.00000000 1.21000000 -0.24472523 -3.41686920e-03
5 1 23.09756268 0.14279197 10.92997318 3.37776783e-03
6 1 23.34035329 0.16004804 10.50450884 -3.37776783e-03
7 1 23.06802404 1.35174555 10.96228975 3.41686920e-03
8 1 23.31078376 1.36912623 10.53682019 -3.41686920e-03
9 2 0.00000000 0.00000000 -0.12222523 0.00000000e+00
10 2 0.00000000 0.00000000 0.00027477 0.00000000e+00
11 2 0.00000000 0.00000000 0.12277477 0.00000000e+00
12 2 0.00000000 0.12100000 0.24527477 5.18139194e-03
13 2 0.00000000 0.24200000 0.24527477 5.50362000e-03
14 2 0.00000000 0.36300000 0.24527477 5.01501884e-03
15 2 0.00000000 0.48400000 0.24527477 5.50904170e-03
16 2 0.00000000 0.60500000 0.24527477 6.02408537e-03
17 2 0.00000000 0.72600000 0.24527477 6.86123120e-03
18 2 0.00000000 0.84700000 0.24527477 6.83241897e-03
19 2 0.00000000 0.96800000 0.24527477 5.84994208e-03
20 2 0.00000000 1.08900000 0.24527477 4.96878236e-03
21 2 0.00000000 1.21000000 -0.12222523 0.00000000e+00
22 2 0.00000000 1.21000000 0.00027477 0.00000000e+00
23 2 0.00000000 1.21000000 0.12277477 0.00000000e+00
24 2 0.00000000 0.12100000 -0.24472523 -5.18139194e-03
25 2 0.00000000 0.24200000 -0.24472523 -5.50362000e-03
26 2 0.00000000 0.36300000 -0.24472523 -5.01501884e-03
27 2 0.00000000 0.48400000 -0.24472523 -5.50904170e-03
28 2 0.00000000 0.60500000 -0.24472523 -6.02408537e-03
29 2 0.00000000 0.72600000 -0.24472523 -6.86123120e-03
30 2 0.00000000 0.84700000 -0.24472523 -6.83241897e-03
31 2 0.00000000 0.96800000 -0.24472523 -5.84994208e-03
32 2 0.00000000 1.08900000 -0.24472523 -4.96878236e-03
33 1 23.27964800 0.15572989 10.61087890 0.00000000e+00
34 1 23.21895004 0.15141482 10.71724019 0.00000000e+00
35 1 23.15825413 0.14710336 10.82360308 0.00000000e+00
36 1 23.09461405 0.26369016 10.93319409 5.05002864e-03
37 1 23.09166626 0.38458668 10.93641717 5.64089052e-03
38 1 23.08871862 0.50548391 10.93963901 5.44128437e-03
39 1 23.08578287 0.62638034 10.94286543 6.40224548e-03
40 1 23.08281807 0.74727271 10.94609206 6.88148315e-03
41 1 23.07986631 0.86816590 10.94931949 6.11583422e-03
42 1 23.07690711 0.98906282 10.95255580 5.69198232e-03
43 1 23.07393716 1.10996234 10.95580380 6.01735171e-03
44 1 23.07097598 1.23085446 10.95904454 5.43527194e-03
45 1 23.25009108 1.36478171 10.64318896 0.00000000e+00
46 1 23.18939886 1.36043733 10.74955015 0.00000000e+00
47 1 23.12870864 1.35609215 10.85591561 0.00000000e+00
48 1 23.33739959 0.28094986 10.50773383 -5.05002864e-03
49 1 23.33444868 0.40185874 10.51096310 -5.64089052e-03
50 1 23.33149613 0.52276309 10.51417219 -5.44128437e-03
51 1 23.32854726 0.64367180 10.51739088 -6.40224548e-03
52 1 23.32559464 0.76458210 10.52062038 -6.88148315e-03
53 1 23.32263692 0.88549619 10.52386854 -6.11583422e-03
54 1 23.31967571 1.00641070 10.52709404 -5.69198232e-03
55 1 23.31671145 1.12731974 10.53033742 -6.01735171e-03
56 1 23.31375153 1.24822312 10.53358226 -5.43527194e-03
57 1 0.12391653 0.00330350 -0.24599786 -4.80862070e-03
58 1 0.24827437 0.00586527 -0.24502919 -5.62714142e-03
59 1 0.37271694 0.00625722 -0.24339863 -6.00619986e-03
60 1 0.49800252 0.00618029 -0.24065043 -6.09052560e-03
61 1 0.62263990 0.00634355 -0.23643523 -6.09206826e-03
62 1 0.74740912 0.00762023 -0.23099341 -5.94781856e-03
63 1 0.87193693 0.00891075 -0.22455116 -5.82025544e-03
64 1 0.99621523 0.00812923 -0.21456439 -5.95871849e-03
65 1 1.12182101 0.00844688 -0.20494596 -6.09232315e-03
66 1 1.24654890 0.00802785 -0.19444977 -6.09205550e-03
67 1 1.37057204 0.00852814 -0.18201369 -6.08598370e-03
68 1 1.49465434 0.00966576 -0.16697044 -6.07933546e-03
69 1 1.61847153 0.01002119 -0.15299546 -6.08488133e-03
70 1 1.74208122 0.01005788 -0.13678076 -6.08161608e-03
71 1 1.86532223 0.01024721 -0.11955240 -6.08881076e-03
72 1 1.98958585 0.01015657 -0.10071408 -6.09207793e-03
73 1 2.11306130 0.01058800 -0.08125128 -6.09206431e-03
74 1 2.23620479 0.01167791 -0.05969502 -6.09206920e-03
75 1 2.35910712 0.01177568 -0.03773023 -6.09206749e-03
76 1 2.48134779 0.01166298 -0.01477241 -6.09206826e-03
77 1 2.60321821 0.01192996 0.00907481 -6.09206901e-03
78 1 2.72547598 0.01120694 0.03374623 -6.08547783e-03
79 1 2.84709454 0.01187569 0.05946131 -6.07797420e-03
80 1 2.96848058 0.01329480 0.08627402 -6.08460882e-03
81 1 3.08975469 0.01301257 0.11383916 -6.08123045e-03
82 1 3.21048426 0.01359957 0.14268667 -6.08867780e-03
83 1 3.33084218 0.01412247 0.17238503 -6.09206866e-03
84 1 3.45142925 0.01457001 0.20315493 -6.09206839e-03
85 1 3.57139732 0.01438771 0.23412872 -6.09206833e-03
86 1 3.69144937 0.01427084 0.26643233 -6.09206826e-03
87 1 3.81148458 0.01541688 0.29948102 -6.09206824e-03
88 1 3.93085613 0.01602837 0.33286839 -6.09206825e-03
89 1 4.05023822 0.01574666 0.36679499 -6.10477040e-03
90 1 4.16929197 0.01679526 0.40167862 -6.10144793e-03
91 1 4.28757891 0.01718587 0.43740380 -6.09206826e-03
92 1 4.40647485 0.01742303 0.47347380 -6.08473760e-03
93 1 4.52432628 0.01779768 0.51027794 -6.07718969e-03
94 1 4.64223796 0.01856764 0.54810092 -6.08430762e-03
95 1 4.75989134 0.01936080 0.58619735 -6.08084602e-03
96 1 4.87765497 0.01965152 0.62469697 -6.08857506e-03
97 1 4.99519044 0.02076347 0.66433759 -6.09439460e-03
98 1 5.11240587 0.02075440 0.70453816 -6.09360296e-03
99 1 5.22902958 0.02140409 0.74583282 -6.10212083e-03
100 1 5.34585490 0.02165994 0.78717477 -6.09455787e-03
101 1 5.46197437 0.02281533 0.82893984 -6.08457013e-03
102 1 5.57794220 0.02318947 0.87149036 -6.08334006e-03
103 1 5.69427958 0.02357415 0.91511835 -6.09025173e-03
104 1 5.80959276 0.02413391 0.95875667 -6.09206826e-03
105 1 5.92499332 0.02469545 1.00286465 -6.09206826e-03
106 1 6.04010230 0.02573437 1.04765366 -6.08838437e-03
107 1 6.15482580 0.02631494 1.09282465 -6.09329454e-03
108 1 6.26997363 0.02643713 1.13848370 -6.09400483e-03
109 1 6.38455178 0.02732093 1.18472096 -6.08872179e-03
110 1 6.49900204 0.02820328 1.23187267 -6.08812243e-03
111 1 6.61274601 0.02884956 1.27912186 -6.09206826e-03
112 1 6.72679506 0.02940155 1.32656430 -6.09206826e-03
113 1 6.84027247 0.02996678 1.37438872 -6.09206826e-03
114 1 6.95335323 0.03079109 1.42313067 -6.06302327e-03
115 1 7.06662239 0.03092680 1.47213941 -6.06302327e-03
116 1 7.17974047 0.03159693 1.52176841 -5.90236529e-03
117 1 7.29239752 0.03232118 1.57173844 -5.81608564e-03
118 1 7.40491534 0.03298605 1.62186789 -6.10035823e-03
119 1 7.51738335 0.03359069 1.67248686 -5.08741334e-03
120 1 7.62945629 0.03417299 1.72338452 -6.87719096e-03
121 1 7.74126181 0.03497568 1.77458428 -5.18694999e-03
122 1 7.85347103 0.03530166 1.82604945 -5.00655937e-03
123 1 7.96495509 0.03606515 1.87801152 -7.17602109e-03
124 1 8.07643829 0.03701966 1.93025162 -5.64123658e-03
125 1 8.18808335 0.03776607 1.98286230 -5.91249038e-03
126 1 8.29908537 0.03828290 2.03561125 -5.77202514e-03
127 1 8.41003656 0.03898846 2.08865680 -5.95689302e-03
128 1 8.52109423 0.03983688 2.14207454 -6.09206826e-03
129 1 8.63182469 0.04021581 2.19587399 -6.09206826e-03
130 1 8.74231771 0.04091876 2.24981134 -6.09206826e-03
131 1 8.85268750 0.04170913 2.30395505 -6.00199927e-03
132 1 8.96310792 0.04282076 2.35844873 -6.06987486e-03
133 1 9.07330629 0.04355897 2.41325594 -5.02835518e-03
134 1 9.18325906 0.04419550 2.46827336 -6.79157831e-03
135 1 9.29285851 0.04515649 2.52369657 -4.92113473e-03
136 1 9.40268516 0.04564261 2.57926585 -5.56259368e-03
137 1 9.51231667 0.04617416 2.63523178 -5.94323360e-03
138 1 9.62171454 0.04712014 2.69156545 -5.00637084e-03
139 1 9.73081391 0.04768822 2.74772056 -6.75640181e-03
140 1 9.83987190 0.04819784 2.80419789 -4.91035923e-03
141 1 9.94874001 0.04890206 2.86096952 -5.75765677e-03
142 1 10.05766223 0.04966035 2.91779873 -6.37465021e-03
143 1 10.16646466 0.05056872 2.97479372 -6.33172667e-03
144 1 10.27506849 0.05136179 3.03197934 -5.77695765e-03
145 1 10.38372866 0.05230621 3.08937001 -5.75602868e-03
146 1 10.49220346 0.05296888 3.14685383 -5.94989338e-03
147 1 10.60037626 0.05363457 3.20472192 -6.09206826e-03
148 1 10.70860685 0.05458090 3.26274876 -6.09206826e-03
149 1 10.81671398 0.05517847 3.32096178 -6.49862787e-03
150 1 10.92473362 0.05603081 3.37940244 -6.47806478e-03
151 1 11.03267151 0.05662531 3.43784413 -5.98398651e-03
152 1 11.14052996 0.05750004 3.49657923 -5.97118729e-03
153 1 11.24823109 0.05813392 3.55531923 -6.32827249e-03
154 1 11.35589195 0.05892556 3.61415034 -6.38296841e-03
155 1 11.46348622 0.05989145 3.67315412 -6.09206826e-03
156 1 11.57091649 0.06049320 3.73238654 -5.92176613e-03
157 1 11.67826011 0.06130758 3.79163229 -5.84196899e-03
158 1 11.78544878 0.06205693 3.85096487 -5.89327746e-03
159 1 11.89269493 0.06288958 3.91060201 -4.96011300e-03
160 1 11.99981183 0.06368381 3.97021432 -6.65158567e-03
161 1 12.10684064 0.06446829 4.03000846 -4.90989307e-03
162 1 12.21395891 0.06524481 4.08984321 -5.52395043e-03
163 1 12.32089106 0.06612457 4.14981460 -5.87068470e-03
164 1 12.42774507 0.06690843 4.20984610 -4.88602194e-03
165 1 12.53451831 0.06773799 4.26998115 -6.40279006e-03
166 1 12.64125576 0.06851705 4.33018066 -5.12407601e-03
167 1 12.74792280 0.06929190 4.39049429 -4.88216806e-03
168 1 12.85455422 0.07007545 4.45087061 -6.38017819e-03
169 1 12.96110602 0.07098325 4.51133180 -5.11373203e-03
170 1 13.06760918 0.07176190 4.57186770 -4.85398664e-03
171 1 13.17409987 0.07255409 4.63249221 -6.35577596e-03
172 1 13.28046257 0.07344067 4.69318196 -5.10698016e-03
173 1 13.38688349 0.07418188 4.75390230 -4.85870271e-03
174 1 13.49317242 0.07501121 4.81477280 -6.37702085e-03
175 1 13.59947711 0.07576803 4.87560877 -5.10092274e-03
176 1 13.70571802 0.07663657 4.93652240 -4.84968636e-03
177 1 13.81189143 0.07748656 4.99750511 -6.37599125e-03
178 1 13.91807735 0.07832705 5.05853369 -4.87710407e-03
179 1 14.02422448 0.07917063 5.11962624 -5.56677439e-03
180 1 14.13034276 0.07995476 5.18074764 -5.93477518e-03
181 1 14.23640156 0.08082950 5.24193604 -6.09206826e-03
182 1 14.34244775 0.08165312 5.30313600 -6.09206826e-03
183 1 14.44844676 0.08251389 5.36437572 -5.98211588e-03
184 1 14.55439753 0.08334578 5.42565523 -5.88223740e-03
185 1 14.66034052 0.08420593 5.48700694 -5.93479953e-03
186 1 14.76627451 0.08500238 5.54836760 -4.77734034e-03
187 1 14.87214764 0.08586288 5.60975232 -6.31776323e-03
188 1 14.97801758 0.08674626 5.67114340 -4.85845554e-03
189 1 15.08387155 0.08761103 5.73258583 -5.48045656e-03
190 1 15.18969243 0.08846264 5.79404454 -5.74774533e-03
191 1 15.29548174 0.08930601 5.85552719 -5.91938606e-03
192 1 15.40126911 0.09016039 5.91705053 -4.72601755e-03
193 1 15.50703794 0.09102661 5.97858535 -6.44309587e-03
194 1 15.61279548 0.09189838 6.04010891 -5.21392668e-03
195 1 15.71854575 0.09276786 6.10163741 -4.32492230e-03
196 1 15.82427859 0.09363050 6.16319673 -6.11554878e-03
197 1 15.92999013 0.09450039 6.22476627 -5.20526136e-03
198 1 16.03570701 0.09538104 6.28634290 -4.31230685e-03
199 1 16.14139554 0.09624708 6.34792141 -6.11716232e-03
200 1 16.24707583 0.09713569 6.40951549 -5.69773107e-03
201 1 16.35276217 0.09800663 6.47110567 -5.99314584e-03
202 1 16.45843650 0.09889035 6.53269926 -4.76350900e-03
203 1 16.56410541 0.09978262 6.59429066 -5.21120302e-03
204 1 16.66976807 0.10067633 6.65588076 -6.01204532e-03
205 1 16.77542895 0.10155833 6.71747570 -5.73233737e-03
206 1 16.88109037 0.10243627 6.77906116 -5.81943467e-03
207 1 16.98674760 0.10333419 6.84064664 -6.32655047e-03
208 1 17.09239810 0.10423228 6.90221109 -5.03614005e-03
209 1 17.19805108 0.10512463 6.96378529 -4.70280803e-03
210 1 17.30370505 0.10601290 7.02535273 -8.65683464e-03
211 1 17.40935541 0.10691470 7.08690464 -5.94692004e-03
212 1 17.51503110 0.10782887 7.14842776 -5.65885778e-03
213 1 17.62068341 0.10873152 7.20996569 -5.99277035e-03
214 1 17.72636440 0.10964942 7.27146524 -6.04066598e-03
215 1 17.83204631 0.11056448 7.33296640 -6.09206826e-03
216 1 17.93771752 0.11145695 7.39442493 -6.09206826e-03
217 1 18.04341072 0.11237140 7.45589898 -6.09206826e-03
218 1 18.14909469 0.11329901 7.51735629 -5.94140402e-03
219 1 18.25479371 0.11422427 7.57879532 -6.09135703e-03
220 1 18.36049820 0.11513786 7.64021613 -6.09135703e-03
221 1 18.46620054 0.11605038 7.70161812 -6.09206826e-03
222 1 18.57192045 0.11697998 7.76299674 -6.22362401e-03
223 1 18.67766249 0.11788819 7.82435942 -6.30618064e-03
224 1 18.78339374 0.11883284 7.88570310 -6.16079228e-03
225 1 18.88913386 0.11976865 7.94703822 -6.90076158e-03
226 1 18.99489194 0.12069302 8.00835223 -7.19612184e-03
227 1 19.10064513 0.12162146 8.06964366 -6.17999120e-03
228 1 19.20641416 0.12254187 8.13090881 -5.85545161e-03
229 1 19.31219398 0.12347683 8.19216162 -6.04373412e-03
230 1 19.41797917 0.12438954 8.25337406 -6.05837687e-03
231 1 19.52377952 0.12535147 8.31456059 -6.22625934e-03
232 1 19.62960547 0.12629991 8.37573966 -6.96326852e-03
233 1 19.73541183 0.12723915 8.43689773 -6.60839364e-03
234 1 19.84126109 0.12817161 8.49801902 -6.08325267e-03
235 1 19.94713146 0.12912683 8.55910935 -5.98999100e-03
236 1 20.05298970 0.13005801 8.62019363 -6.02220795e-03
237 1 20.15887114 0.13103244 8.68124071 -5.94934321e-03
238 1 20.26476590 0.13198897 8.74227334 -6.23085673e-03
239 1 20.37068023 0.13293693 8.80330235 -5.91383044e-03
240 1 20.47658188 0.13388204 8.86428345 -5.82022831e-03
241 1 20.58250926 0.13485049 8.92526343 -6.06616825e-03
242 1 20.68844570 0.13582836 8.98619556 -6.09206826e-03
243 1 20.79441143 0.13677882 9.04712993 -6.22108889e-03
244 1 20.90037081 0.13769689 9.10804398 -6.93510095e-03
245 1 21.00636044 0.13865562 9.16892197 -6.55067958e-03
246 1 21.11233048 0.13963518 9.22979055 -5.44215936e-03
247 1 21.21834372 0.14058831 9.29064715 -5.52453627e-03
248 1 21.32434630 0.14152757 9.35147134 -6.11677386e-03
249 1 21.43038656 0.14250282 9.41228456 -5.40422112e-03
250 1 21.53641630 0.14349000 9.47306808 -5.51625079e-03
251 1 21.64245980 0.14445642 9.53383296 -6.10817079e-03
252 1 21.74851977 0.14542882 9.59458041 -5.39058303e-03
253 1 21.85458719 0.14638936 9.65531601 -5.51111698e-03
254 1 21.96065492 0.14737286 9.71603897 -6.09959331e-03
255 1 22.06674652 0.14835198 9.77675289 -5.37708140e-03
256 1 22.17283898 0.14929037 9.83744036 -5.50601994e-03
257 1 22.27893874 0.15026547 9.89813372 -6.09132348e-03
258 1 22.38505134 0.15124901 9.95880424 -5.36406280e-03
259 1 22.49116960 0.15221593 10.01946097 -5.50114066e-03
260 1 22.59730948 0.15319820 10.08011501 -6.07613573e-03
261 1 22.70344135 0.15416953 10.14076152 -5.86576563e-03
262 1 22.80959028 0.15516302 10.20139246 -5.87763703e-03
263 1 22.91573314 0.15614324 10.26202100 -5.79509293e-03
264 1 23.02189071 0.15712393 10.32264525 -6.45795830e-03
265 1 23.12804090 0.15809928 10.38326581 -6.36067877e-03
266 1 23.23419601 0.15907348 10.44388883 -5.01672083e-03
267 1 0.12101468 -0.00262558 0.24369324 4.80862070e-03
268 1 0.24178974 -0.00498133 0.24386061 5.62714142e-03
269 1 0.36245469 -0.00504008 0.24491434 6.00619986e-03
270 1 0.48279505 -0.00532550 0.24883322 6.09052560e-03
271 1 0.60192584 -0.00683850 0.25293726 6.09206826e-03
272 1 0.72237237 -0.00753737 0.25787048 5.94781856e-03
273 1 0.84250293 -0.00767629 0.26525607 5.82025544e-03
274 1 0.96151411 -0.00614812 0.27281667 5.95871849e-03
275 1 1.08058579 -0.00587298 0.28242367 6.09232315e-03
276 1 1.20022079 -0.00603380 0.29399789 6.09205550e-03
277 1 1.31962020 -0.00520984 0.30531732 6.08598370e-03
278 1 1.43945175 -0.00563669 0.31779504 6.07933546e-03
279 1 1.55913072 -0.00579191 0.33255453 6.08488133e-03
280 1 1.67741863 -0.00551594 0.34774565 6.08161608e-03
281 1 1.79663033 -0.00588535 0.36480038 6.08881076e-03
282 1 1.91604086 -0.00604116 0.38291619 6.09207793e-03
283 1 2.03339785 -0.00529091 0.40123676 6.09206431e-03
284 1 2.15263508 -0.00398557 0.42120008 6.09206920e-03
285 1 2.27112090 -0.00403855 0.44296520 6.09206749e-03
286 1 2.38967658 -0.00365206 0.46561365 6.09206826e-03
287 1 2.50811486 -0.00309451 0.48835143 6.09206901e-03
288 1 2.62653875 -0.00321730 0.51334427 6.08547783e-03
289 1 2.74417812 -0.00265873 0.53795041 6.07797420e-03
290 1 2.86178868 -0.00203185 0.56410499 6.08460882e-03
291 1 2.97960718 -0.00105378 0.59093664 6.08123045e-03
292 1 3.09722992 -0.00053511 0.61932919 6.08867780e-03
293 1 3.21394963 -0.00029960 0.64762975 6.09206866e-03
294 1 3.33106243 -0.00052104 0.67700562 6.09206839e-03
295 1 3.44786427 0.00054896 0.70761726 6.09206833e-03
296 1 3.56465638 0.00081733 0.73896811 6.09206826e-03
297 1 3.68160096 0.00106855 0.77112396 6.09206824e-03
298 1 3.79768987 0.00122249 0.80358866 6.09206825e-03
299 1 3.91386998 0.00175243 0.83719936 6.10477040e-03
300 1 4.02949727 0.00262824 0.87105806 6.10144793e-03
301 1 4.14581661 0.00318409 0.90594119 6.09206826e-03
302 1 4.26178048 0.00371643 0.94141772 6.08473760e-03
303 1 4.37767476 0.00366933 0.97692633 6.07718969e-03
304 1 4.49337233 0.00351505 1.01358825 6.08430762e-03
305 1 4.60836937 0.00512241 1.05122210 6.08084602e-03
306 1 4.72324725 0.00541924 1.08920415 6.08857506e-03
307 1 4.83792821 0.00551915 1.12803631 6.09439460e-03
308 1 4.95250779 0.00576459 1.16752118 6.09360296e-03
309 1 5.06678812 0.00709231 1.20720468 6.10212083e-03
310 1 5.18063644 0.00734802 1.24768505 6.09455787e-03
311 1 5.29476871 0.00783520 1.28893926 6.08457013e-03
312 1 5.40873018 0.00856089 1.33071438 6.08334006e-03
313 1 5.52224459 0.00909631 1.37282761 6.09025173e-03
314 1 5.63578321 0.00933011 1.41568490 6.09206826e-03
315 1 5.74944771 0.00971298 1.45930318 6.09206826e-03
316 1 5.86248220 0.01040513 1.50313357 6.08838437e-03
317 1 5.97512090 0.01134328 1.54791130 6.09329454e-03
318 1 6.08747454 0.01108421 1.59293229 6.09400483e-03
319 1 6.20024294 0.01167740 1.63836757 6.08872179e-03
320 1 6.31287177 0.01234731 1.68425306 6.08812243e-03
321 1 6.42497722 0.01324111 1.73025259 6.09206826e-03
322 1 6.53697990 0.01372222 1.77735473 6.09206826e-03
323 1 6.64884132 0.01465811 1.82508192 6.09206826e-03
324 1 6.76030286 0.01513415 1.87289507 6.06302327e-03
325 1 6.87167218 0.01595057 1.92122996 6.06302327e-03
326 1 6.98291665 0.01657692 1.96987418 5.90236529e-03
327 1 7.09419533 0.01734042 2.01919927 5.81608564e-03
328 1 7.20534989 0.01826213 2.06884735 6.10035823e-03
329 1 7.31605378 0.01856002 2.11878014 5.08741347e-03
330 1 7.42728226 0.01910104 2.16890267 6.88423117e-03
331 1 7.53770499 0.01993018 2.21978754 4.95164977e-03
332 1 7.64794582 0.02060401 2.27034699 5.63292633e-03
333 1 7.75830357 0.02105769 2.32173578 5.95654755e-03
334 1 7.86858953 0.02168601 2.37334170 6.00432988e-03
335 1 7.97870985 0.02249695 2.42525960 6.08757506e-03
336 1 8.08862755 0.02316655 2.47755161 5.05700823e-03
337 1 8.19856694 0.02357117 2.53001504 6.83715280e-03
338 1 8.30827857 0.02441748 2.58270462 4.93632937e-03
339 1 8.41792489 0.02486620 2.63603706 5.62467055e-03
340 1 8.52728995 0.02531779 2.68933713 5.95386311e-03
341 1 8.63640326 0.02605100 2.74307976 6.00199927e-03
342 1 8.74568982 0.02670496 2.79717179 6.06987486e-03
343 1 8.85448817 0.02731373 2.85132928 5.01509653e-03
344 1 8.96363405 0.02810460 2.90581779 6.78511241e-03
345 1 9.07243930 0.02868738 2.96059593 4.92113473e-03
346 1 9.18107893 0.02928896 3.01585151 5.61645056e-03
347 1 9.28949087 0.03020028 3.07124331 5.95118153e-03
348 1 9.39796585 0.03079558 3.12676943 6.09206826e-03
349 1 9.50611940 0.03156877 3.18273180 6.09206826e-03
350 1 9.61440002 0.03221707 3.23869840 6.09206826e-03
351 1 9.72266324 0.03299510 3.29505223 6.50085567e-03
352 1 9.83076922 0.03369300 3.35147728 6.38496347e-03
353 1 9.93888666 0.03437171 3.40814303 5.77251663e-03
354 1 10.04668215 0.03504879 3.46494100 5.73476969e-03
355 1 10.15460881 0.03571927 3.52199339 5.94888879e-03
356 1 10.26233758 0.03621262 3.57918099 6.09206826e-03
357 1 10.36991198 0.03712661 3.63654510 6.09206826e-03
358 1 10.47745458 0.03778292 3.69421229 6.09206826e-03
359 1 10.58485000 0.03839554 3.75198320 6.09206826e-03
360 1 10.69199322 0.03923325 3.81001916 4.98457375e-03
361 1 10.79936304 0.04004019 3.86822266 6.69756871e-03
362 1 10.90662271 0.04085411 3.92657982 5.15375987e-03
363 1 11.01367251 0.04156933 3.98494543 4.95985007e-03
364 1 11.12073471 0.04229642 4.04347092 6.48212442e-03
365 1 11.22777158 0.04298817 4.10231341 5.14927068e-03
366 1 11.33468741 0.04383128 4.16114655 4.95341033e-03
367 1 11.44151195 0.04439606 4.22021386 6.46347279e-03
368 1 11.54827546 0.04534933 4.27927979 5.14043101e-03
369 1 11.65493506 0.04598517 4.33855968 4.91020010e-03
370 1 11.76173348 0.04682061 4.39795685 6.45556760e-03
371 1 11.86839399 0.04759955 4.45750378 4.90989307e-03
372 1 11.97496551 0.04831650 4.51714875 5.52395043e-03
373 1 12.08147119 0.04916070 4.57686611 5.87068470e-03
374 1 12.18787104 0.04994904 4.63669616 4.87920209e-03
375 1 12.29432229 0.05068783 4.69660932 6.41661913e-03
376 1 12.40068000 0.05149254 4.75664004 4.89988333e-03
377 1 12.50705161 0.05232378 4.81672703 5.51681014e-03
378 1 12.61335543 0.05312398 4.87694212 5.85936171e-03
379 1 12.71952507 0.05388340 4.93724149 4.85938456e-03
380 1 12.82573513 0.05470723 4.99756292 6.38254444e-03
381 1 12.93196276 0.05546030 5.05799660 4.88995824e-03
382 1 13.03809248 0.05626869 5.11855174 5.57476230e-03
383 1 13.14416160 0.05717909 5.17915780 5.93743790e-03
384 1 13.25020608 0.05788379 5.23979814 5.98766457e-03
385 1 13.35624947 0.05871520 5.30049975 5.96043235e-03
386 1 13.46223113 0.05956807 5.36132199 4.81637844e-03
387 1 13.56823268 0.06036734 5.42222898 6.34214196e-03
388 1 13.67421491 0.06121613 5.48311306 4.87620659e-03
389 1 13.78014562 0.06205062 5.54406671 5.56677439e-03
390 1 13.88606378 0.06283684 5.60506055 5.93477518e-03
391 1 13.99191752 0.06365833 5.66610515 5.98532808e-03
392 1 14.09776955 0.06452426 5.72723938 5.94249673e-03
393 1 14.20359250 0.06532173 5.78838177 4.79106117e-03
394 1 14.30939693 0.06613465 5.84959128 6.34873408e-03
395 1 14.41516156 0.06704587 5.91083771 5.10720957e-03
396 1 14.52093091 0.06784811 5.97212590 4.79385489e-03
397 1 14.62670811 0.06866373 6.03343758 6.33054845e-03
398 1 14.73246996 0.06950451 6.09480328 5.10009402e-03
399 1 14.83818299 0.07035925 6.15615601 4.78369059e-03
400 1 14.94393037 0.07123744 6.21756372 6.31203828e-03
401 1 15.04964437 0.07210120 6.27899973 5.09300092e-03
402 1 15.15533267 0.07297293 6.34044534 4.74903927e-03
403 1 15.26102132 0.07383022 6.40193378 6.32830758e-03
404 1 15.36671943 0.07469915 6.46343894 5.08343922e-03
405 1 15.47239807 0.07555783 6.52496081 4.32591159e-03
406 1 15.57807477 0.07641365 6.58647208 6.00104739e-03
407 1 15.68374745 0.07729911 6.64802535 5.21119202e-03
408 1 15.78940781 0.07816535 6.70957248 6.09206826e-03
409 1 15.89507438 0.07904547 6.77114715 6.05153388e-03
410 1 16.00073188 0.07992965 6.83271447 5.91774538e-03
411 1 16.10639375 0.08080491 6.89429931 6.22305381e-03
412 1 16.21205277 0.08169142 6.95589434 5.03791106e-03
413 1 16.31771235 0.08258134 7.01748682 4.72607940e-03
414 1 16.42337582 0.08346044 7.07907561 8.71836332e-03
415 1 16.52903999 0.08436059 7.14067575 5.95355142e-03
416 1 16.63470395 0.08525735 7.20227730 5.36960420e-03
417 1 16.74036636 0.08616451 7.26387048 6.03255871e-03
418 1 16.84604148 0.08705688 7.32545644 5.00245570e-03
419 1 16.95173363 0.08795698 7.38704740 4.70280803e-03
420 1 17.05741846 0.08884952 7.44861941 8.65685956e-03
421 1 17.16310822 0.08976387 7.51019333 5.94692135e-03
422 1 17.26879478 0.09067983 7.57176802 5.65886656e-03
423 1 17.37450048 0.09158350 7.63331597 5.98663784e-03
424 1 17.48022929 0.09249197 7.69485582 6.03862808e-03
425 1 17.58595553 0.09340979 7.75637859 6.08821513e-03
426 1 17.69167993 0.09432162 7.81788842 6.17296108e-03
427 1 17.79741358 0.09523904 7.87938281 6.04911048e-03
428 1 17.90316076 0.09614348 7.94087611 6.99423467e-03
429 1 18.00891399 0.09705535 8.00234510 6.49916941e-03
430 1 18.11466948 0.09798791 8.06380750 6.05139015e-03
431 1 18.22045903 0.09890613 8.12523966 6.07023001e-03
432 1 18.32624220 0.09984486 8.18667215 6.06423220e-03
433 1 18.43203696 0.10077634 8.24807696 6.03339671e-03
434 1 18.53783449 0.10172107 8.30947026 6.06123277e-03
435 1 18.64366301 0.10263963 8.37084738 6.05523286e-03
436 1 18.74949353 0.10359005 8.43219942 6.01539697e-03
437 1 18.85531924 0.10450278 8.49352973 6.05223237e-03
438 1 18.96115770 0.10545618 8.55485700 6.04623034e-03
439 1 19.06704235 0.10640288 8.61617415 5.99739088e-03
440 1 19.17290279 0.10734721 8.67743942 6.03386113e-03
441 1 19.27878171 0.10828568 8.73867382 6.06015229e-03
442 1 19.38469746 0.10923684 8.79990396 6.93292310e-03
443 1 19.49063078 0.11016763 8.86111160 6.60839364e-03
444 1 19.59656263 0.11111916 8.92228676 6.08325267e-03
445 1 19.70250113 0.11205106 8.98345282 5.98999100e-03
446 1 19.80844625 0.11299221 9.04457448 6.02220795e-03
447 1 19.91441154 0.11393943 9.10568326 5.94934321e-03
448 1 20.02039301 0.11491153 9.16676920 6.00521256e-03
449 1 20.12637396 0.11586437 9.22782286 5.96042100e-03
450 1 20.23239318 0.11680116 9.28887222 6.01327673e-03
451 1 20.33839365 0.11774825 9.34989262 6.06616825e-03
452 1 20.44442483 0.11870651 9.41088762 6.09206826e-03
453 1 20.55045324 0.11967692 9.47187279 6.22108889e-03
454 1 20.65648810 0.12063574 9.53283091 6.93510095e-03
455 1 20.76254513 0.12158533 9.59376128 6.55067958e-03
456 1 20.86862501 0.12255204 9.65467867 5.44215936e-03
457 1 20.97469081 0.12352517 9.71558056 5.52453627e-03
458 1 21.08077246 0.12446944 9.77645096 6.09206826e-03
459 1 21.18686796 0.12542448 9.83729886 5.52769247e-03
460 1 21.29296200 0.12639001 9.89813208 5.54504444e-03
461 1 21.39907372 0.12734370 9.95892944 6.09206826e-03
462 1 21.50520600 0.12831714 10.01972786 5.52433613e-03
463 1 21.61132383 0.12927621 10.08049872 5.54169116e-03
464 1 21.71746381 0.13021437 10.14125542 6.09959331e-03
465 1 21.82361327 0.13118310 10.20198776 5.37708140e-03
466 1 21.92975269 0.13215075 10.26271881 5.50601994e-03
467 1 22.03590215 0.13310838 10.32342975 6.09132348e-03
468 1 22.14206814 0.13407335 10.38412859 5.36406280e-03
469 1 22.24823045 0.13504175 10.44481353 5.50114066e-03
470 1 22.35440044 0.13600038 10.50549363 6.07613573e-03
471 1 22.46056012 0.13697664 10.56615583 5.86576563e-03
472 1 22.56673199 0.13794312 10.62681291 5.87763704e-03
473 1 22.67290716 0.13891231 10.68746017 5.79509293e-03
474 1 22.77906333 0.13988326 10.74809994 6.45795830e-03
475 1 22.88523553 0.14084662 10.80872873 6.36067877e-03
476 1 22.99140042 0.14182164 10.86935317 5.01672083e-03
477 1 0.12345248 1.20732876 -0.24457592 -5.06599779e-03
478 1 0.24714532 1.20629273 -0.24478461 -5.96099493e-03
479 1 0.37191535 1.20433344 -0.24250942 -6.06828787e-03
480 1 0.49675617 1.20495701 -0.23949073 -6.09081051e-03
481 1 0.62126454 1.20491936 -0.23448447 -6.09597885e-03
482 1 0.74571100 1.20527232 -0.22867371 -6.09677124e-03
483 1 0.87124853 1.20425645 -0.22080658 -6.09261604e-03
484 1 0.99585385 1.20513387 -0.21215650 -6.09210769e-03
485 1 1.12090425 1.20446637 -0.20074726 -6.09159289e-03
486 1 1.24475339 1.20473846 -0.18903580 -6.09258964e-03
487 1 1.36902301 1.20682504 -0.17704828 -6.11404233e-03
488 1 1.49265663 1.20725602 -0.16264742 -6.12924398e-03
489 1 1.61586471 1.20617403 -0.14748258 -6.13810471e-03
490 1 1.73933018 1.20657147 -0.13161186 -6.10740278e-03
491 1 1.86298992 1.20653076 -0.11392284 -6.11299929e-03
492 1 1.98625384 1.20712205 -0.09391828 -6.11651709e-03
493 1 2.10920326 1.20685988 -0.07508722 -6.10892752e-03
494 1 2.23207783 1.20871980 -0.05402330 -6.08383817e-03
495 1 2.35491427 1.20968368 -0.03156017 -6.07811671e-03
496 1 2.47670699 1.20957036 -0.00771265 -6.12167487e-03
497 1 2.59831982 1.20918603 0.01623822 -6.12891596e-03
498 1 2.72023782 1.21037829 0.04101134 -6.13439434e-03
499 1 2.84210759 1.21139907 0.06779397 -6.11877956e-03
500 1 2.96340506 1.21102281 0.09510717 -6.09486572e-03
501 1 3.08433429 1.21215014 0.12319313 -6.09206826e-03
502 1 3.20570954 1.21249856 0.15242310 -6.09206855e-03
503 1 3.32597597 1.21285981 0.18264590 -6.09206932e-03
504 1 3.44546268 1.21352358 0.21343714 -6.11378764e-03
505 1 3.56647945 1.21518573 0.24518107 -6.10132488e-03
506 1 3.68548382 1.21590726 0.27771505 -6.14015253e-03
507 1 3.80476900 1.21591513 0.31053242 -6.18862768e-03
508 1 3.92337143 1.21703228 0.34504725 -6.20494803e-03
509 1 4.04225475 1.21749128 0.37915997 -6.16689241e-03
510 1 4.16051735 1.21796298 0.41464841 -6.13536340e-03
511 1 4.27898306 1.21835167 0.45034033 -6.09206826e-03
512 1 4.39702230 1.21880759 0.48673452 -6.09528258e-03
513 1 4.51527620 1.21987679 0.52364323 -6.10197805e-03
514 1 4.63345115 1.22013661 0.56143411 -6.09705471e-03
515 1 4.75076338 1.22100664 0.59997613 -6.06436498e-03
516 1 4.86832718 1.22107243 0.63967407 -6.12133674e-03
517 1 4.98504252 1.22204653 0.67925414 -6.20974613e-03
518 1 5.10184355 1.22301171 0.71967934 -6.24802334e-03
519 1 5.21809509 1.22377546 0.76082207 -6.19819175e-03
520 1 5.33464388 1.22367758 0.80262533 -6.15088270e-03
521 1 5.45098888 1.22445352 0.84504687 -6.13301438e-03
522 1 5.56667142 1.22574697 0.88796055 -6.10131989e-03
523 1 5.68256902 1.22626629 0.93158525 -6.05757291e-03
524 1 5.79788951 1.22730736 0.97560469 -6.04491082e-03
525 1 5.91259346 1.22772120 1.02049921 -6.05437557e-03
526 1 6.02775850 1.22889808 1.06555760 -6.06489385e-03
527 1 6.14221726 1.22978681 1.11105474 -6.09206826e-03
528 1 6.25654471 1.23070175 1.15727649 -6.09206826e-03
529 1 6.37074716 1.23086975 1.20402628 -6.09979510e-03
530 1 6.48452292 1.23164431 1.25117822 -6.12512692e-03
531 1 6.59836034 1.23271268 1.29866906 -6.16578501e-03
532 1 6.71184964 1.23302230 1.34702159 -6.26929389e-03
533 1 6.82486460 1.23377679 1.39521787 -6.28695529e-03
534 1 6.93841407 1.23500785 1.44373537 -6.28583704e-03
535 1 7.05131384 1.23544650 1.49290990 -6.23881179e-03
536 1 7.16428247 1.23623485 1.54273734 -6.30184580e-03
537 1 7.27672402 1.23707372 1.59278315 -6.28022129e-03
538 1 7.38912057 1.23791824 1.64303932 -6.24103982e-03
539 1 7.50149068 1.23878009 1.69370701 -6.33470904e-03
540 1 7.61362259 1.23901932 1.74517318 -6.28101331e-03