ITEM: TIMESTEP
0
ITEM: NUMBER OF ATOMS
10710
ITEM: BOX BOUNDS ff ff ff
-2.0 27.543943589198932
-2.008070609004646 3.2123247953764267
-2.24505528916545 5.943457867411153
ITEM: ATOMS id type x y z q
1 2 0.00000000 0.00000000 0.24527477 3.35542180e-03
2 2 0.00000000 0.00000000 -0.24472523 -3.35542180e-03
3 2 0.00000000 1.21000000 0.24527477 3.41686920e-03
4 2 0.00000000 1.21000000 -0.24472523 -3.41686920e-03
5 1 25.44175473 -0.00807061 3.92916931 3.37776783e-03
6 1 25.54394359 -0.00219537 3.44997100 -3.37776783e-03
7 1 25.43953913 1.20186094 3.94345787 3.41686920e-03
8 1 25.54173041 1.20767878 3.46426037 -3.41686920e-03
9 2 0.00000000 0.00000000 -0.12222523 0.00000000e+00
10 2 0.00000000 0.00000000 0.00027477 0.00000000e+00
11 2 0.00000000 0.00000000 0.12277477 0.00000000e+00
12 2 0.00000000 0.12100000 0.24527477 5.18139194e-03
13 2 0.00000000 0.24200000 0.24527477 5.50362000e-03
14 2 0.00000000 0.36300000 0.24527477 5.01501884e-03
15 2 0.00000000 0.48400000 0.24527477 5.50904170e-03
16 2 0.00000000 0.60500000 0.24527477 6.02408537e-03
17 2 0.00000000 0.72600000 0.24527477 6.86123120e-03
18 2 0.00000000 0.84700000 0.24527477 6.83241897e-03
19 2 0.00000000 0.96800000 0.24527477 5.84994208e-03
20 2 0.00000000 1.08900000 0.24527477 4.96878236e-03
21 2 0.00000000 1.21000000 -0.12222523 0.00000000e+00
22 2 0.00000000 1.21000000 0.00027477 0.00000000e+00
23 2 0.00000000 1.21000000 0.12277477 0.00000000e+00
24 2 0.00000000 0.12100000 -0.24472523 -5.18139194e-03
25 2 0.00000000 0.24200000 -0.24472523 -5.50362000e-03
26 2 0.00000000 0.36300000 -0.24472523 -5.01501884e-03
27 2 0.00000000 0.48400000 -0.24472523 -5.50904170e-03
28 2 0.00000000 0.60500000 -0.24472523 -6.02408537e-03
29 2 0.00000000 0.72600000 -0.24472523 -6.86123120e-03
30 2 0.00000000 0.84700000 -0.24472523 -6.83241897e-03
31 2 0.00000000 0.96800000 -0.24472523 -5.84994208e-03
32 2 0.00000000 1.08900000 -0.24472523 -4.96878236e-03
33 1 25.51839382 -0.00366565 3.56976860 0.00000000e+00
34 1 25.49284811 -0.00513368 3.68956732 0.00000000e+00
35 1 25.46730269 -0.00660133 3.80936790 0.00000000e+00
36 1 25.44153475 0.11291985 3.93060502 5.05002864e-03
37 1 25.44131001 0.23391365 3.93203977 5.64089052e-03
38 1 25.44108733 0.35490605 3.93347475 5.44128437e-03
39 1 25.44086645 0.47590027 3.93490525 6.40224548e-03
40 1 25.44064618 0.59689514 3.93633853 6.88148315e-03
41 1 25.44042413 0.71788887 3.93776574 6.11583422e-03
42 1 25.44020290 0.83888248 3.93919067 5.69198232e-03
43 1 25.43998202 0.95987497 3.94061444 6.01735171e-03
44 1 25.43976156 1.08086936 3.94203736 5.43527194e-03
45 1 25.51618109 1.20622529 3.58405721 0.00000000e+00
46 1 25.49063503 1.20476974 3.70385717 0.00000000e+00
47 1 25.46508954 1.20331468 3.82365697 0.00000000e+00
48 1 25.54371867 0.11879197 3.45140605 -5.05002864e-03
49 1 25.54349808 0.23977953 3.45284165 -5.64089052e-03
50 1 25.54327443 0.36076865 3.45427628 -5.44128437e-03
51 1 25.54305331 0.48175546 3.45570808 -6.40224548e-03
52 1 25.54283290 0.60274195 3.45713815 -6.88148315e-03
53 1 25.54261317 0.72372821 3.45856555 -6.11583422e-03
54 1 25.54239122 0.84471456 3.45999092 -5.69198232e-03
55 1 25.54217060 0.96570276 3.46141441 -6.01735171e-03
56 1 25.54194774 1.08669106 3.46283707 -5.43527194e-03
57 1 0.12264245 0.00077064 -0.24505529 -4.80862070e-03
58 1 0.24538622 0.00137523 -0.24489387 -5.62714142e-03
59 1 0.36814682 0.00147450 -0.24458238 -6.00619986e-03
60 1 0.49108435 0.00146238 -0.24402700 -6.09052560e-03
61 1 0.61390106 0.00150096 -0.24314618 -6.09206826e-03
62 1 0.73676766 0.00179088 -0.24199423 -5.94781856e-03
63 1 0.85958886 0.00209350 -0.24064250 -5.82025544e-03
64 1 0.98238845 0.00190309 -0.23843655 -5.95871849e-03
65 1 1.10549665 0.00196029 -0.23636465 -6.09232315e-03
66 1 1.22842074 0.00183895 -0.23406768 -6.09205550e-03
67 1 1.35122438 0.00193571 -0.23130281 -6.08598370e-03
68 1 1.47409801 0.00218573 -0.22794012 -6.07933546e-03
69 1 1.59688249 0.00222735 -0.22481350 -6.08488133e-03
70 1 1.71967306 0.00219808 -0.22116376 -6.08161608e-03
71 1 1.84240071 0.00220182 -0.21725327 -6.08881076e-03
72 1 1.96544062 0.00213067 -0.21298449 -6.09207793e-03
73 1 2.08830400 0.00219584 -0.20855714 -6.09206431e-03
74 1 2.21115492 0.00242275 -0.20360545 -6.09206920e-03
75 1 2.33395995 0.00239386 -0.19854922 -6.09206749e-03
76 1 2.45663487 0.00230977 -0.19321756 -6.09206826e-03
77 1 2.57925361 0.00230665 -0.18766602 -6.09206901e-03
78 1 2.70200751 0.00205607 -0.18191373 -6.08547783e-03
79 1 2.82466030 0.00215719 -0.17588283 -6.07797420e-03
80 1 2.94730093 0.00246577 -0.16958620 -6.08460882e-03
81 1 3.06993821 0.00230640 -0.16305573 -6.08123045e-03
82 1 3.19250036 0.00237949 -0.15619331 -6.08867780e-03
83 1 3.31501393 0.00243373 -0.14908428 -6.09206866e-03
84 1 3.43764578 0.00246848 -0.14170249 -6.09206839e-03
85 1 3.56012726 0.00231995 -0.13424048 -6.09206833e-03
86 1 3.68270277 0.00219551 -0.12641877 -6.09206826e-03
87 1 3.80533131 0.00242044 -0.11841241 -6.09206824e-03
88 1 3.92780195 0.00248504 -0.11027668 -6.09206825e-03
89 1 4.05030573 0.00229204 -0.10198448 -6.10477040e-03
90 1 4.17278320 0.00248500 -0.09342822 -6.10144793e-03
91 1 4.29509741 0.00247846 -0.08457394 -6.09206826e-03
92 1 4.41761044 0.00242333 -0.07567223 -6.08473760e-03
93 1 4.53988327 0.00240969 -0.06649333 -6.07718969e-03
94 1 4.66224492 0.00251124 -0.05702829 -6.08430762e-03
95 1 4.78455396 0.00261238 -0.04746772 -6.08084602e-03
96 1 4.90693050 0.00255653 -0.03779067 -6.08857506e-03
97 1 5.02932514 0.00275938 -0.02778230 -6.09439460e-03
98 1 5.15166914 0.00261115 -0.01756403 -6.09360296e-03
99 1 5.27392423 0.00267114 -0.00699140 -6.10212083e-03
100 1 5.39624939 0.00259805 0.00358498 -6.09455787e-03
101 1 5.51840282 0.00280750 0.01434418 -6.08457013e-03
102 1 5.64057088 0.00276721 0.02536565 -6.08334006e-03
103 1 5.76295605 0.00272767 0.03668946 -6.09025173e-03
104 1 5.88502266 0.00274494 0.04809490 -6.09206826e-03
105 1 6.00715751 0.00275186 0.05964425 -6.09206826e-03
106 1 6.12927085 0.00292422 0.07143762 -6.08838437e-03
107 1 6.25129334 0.00293630 0.08338878 -6.09329454e-03
108 1 6.37350315 0.00278294 0.09546704 -6.09400483e-03
109 1 6.49559117 0.00290156 0.10778936 -6.08872179e-03
110 1 6.61774013 0.00301899 0.12042265 -6.08812243e-03
111 1 6.73965375 0.00304707 0.13316081 -6.09206826e-03
112 1 6.86169754 0.00303942 0.14593777 -6.09206826e-03
113 1 6.98358852 0.00303103 0.15890208 -6.09206826e-03
114 1 7.10544195 0.00311806 0.17223052 -6.06302327e-03
115 1 7.22738806 0.00295015 0.18563445 -6.06302327e-03
116 1 7.34936232 0.00298290 0.19926915 -5.90236529e-03
117 1 7.47121674 0.00302499 0.21308241 -5.81608564e-03
118 1 7.59303298 0.00305046 0.22697761 -6.10035823e-03
119 1 7.71490014 0.00304603 0.24106216 -5.08741334e-03
120 1 7.83665198 0.00303793 0.25529775 -6.87719096e-03
121 1 7.95834209 0.00311106 0.26967644 -5.18694999e-03
122 1 8.08022730 0.00298837 0.28411811 -5.00655937e-03
123 1 8.20189717 0.00304594 0.29883036 -7.17602109e-03
124 1 8.32361238 0.00317741 0.31365267 -5.64123658e-03
125 1 8.44544056 0.00321972 0.32862624 -5.91249038e-03
126 1 8.56703704 0.00315616 0.34373286 -5.77202514e-03
127 1 8.68864629 0.00317945 0.35897229 -5.95689302e-03
128 1 8.81036298 0.00325947 0.37434811 -6.09206826e-03
129 1 8.93199968 0.00312829 0.38993724 -6.09206826e-03
130 1 9.05356643 0.00314120 0.40561598 -6.09206826e-03
131 1 9.17511042 0.00319731 0.42140129 -6.00199927e-03
132 1 9.29673966 0.00340138 0.43733045 -6.06987486e-03
133 1 9.41831998 0.00342362 0.45344912 -5.02835518e-03
134 1 9.53982166 0.00340410 0.46969806 -6.79157831e-03
135 1 9.66122845 0.00353777 0.48619427 -4.92113473e-03
136 1 9.78276558 0.00343068 0.50272592 -5.56259368e-03
137 1 9.90428824 0.00334397 0.51947763 -5.94323360e-03
138 1 10.02576867 0.00347173 0.53645382 -5.00637084e-03
139 1 10.14707637 0.00339907 0.55339441 -6.75640181e-03
140 1 10.26841274 0.00328510 0.57052269 -4.91035923e-03
141 1 10.38971139 0.00327604 0.58782162 -5.75765677e-03
142 1 10.51105781 0.00329628 0.60513854 -6.37465021e-03
143 1 10.63237746 0.00340066 0.62256814 -6.33172667e-03
144 1 10.75363055 0.00344101 0.64014265 -5.77695765e-03
145 1 10.87496208 0.00356133 0.65782466 -5.75602868e-03
146 1 10.99621075 0.00351196 0.67559272 -5.94989338e-03
147 1 11.11736642 0.00346525 0.69364626 -6.09206826e-03
148 1 11.23859897 0.00359688 0.71177739 -6.09206826e-03
149 1 11.35980109 0.00350541 0.73005074 -6.49862787e-03
150 1 11.48100610 0.00356877 0.74849402 -6.47806478e-03
151 1 11.60216513 0.00345739 0.76694966 -5.98398651e-03
152 1 11.72335026 0.00353879 0.78561500 -5.97118729e-03
153 1 11.84443097 0.00344836 0.80432400 -6.32827249e-03
154 1 11.96551945 0.00345820 0.82310440 -6.38296841e-03
155 1 12.08661480 0.00360586 0.84200643 -6.09206826e-03
156 1 12.20765812 0.00347987 0.86112549 -5.92176613e-03
157 1 12.32864968 0.00351434 0.88027447 -5.84196899e-03
158 1 12.44955553 0.00348629 0.89953208 -5.89327746e-03
159 1 12.57059290 0.00352388 0.91899891 -4.96011300e-03
160 1 12.69152970 0.00353420 0.93847287 -6.65158567e-03
161 1 12.81244622 0.00352488 0.95812336 -4.90989307e-03
162 1 12.93345470 0.00350663 0.97779417 -5.52395043e-03
163 1 13.05436533 0.00358882 0.99763571 -5.87068470e-03
164 1 13.17524374 0.00357626 1.01754272 -4.88602194e-03
165 1 13.29607701 0.00360270 1.03757333 -6.40279006e-03
166 1 13.41691434 0.00357383 1.05766854 -5.12407601e-03
167 1 13.53772671 0.00353050 1.07790809 -4.88216806e-03
168 1 13.65852668 0.00350812 1.09820024 -6.38017819e-03
169 1 13.77929646 0.00360244 1.11861678 -5.11373203e-03
170 1 13.90005107 0.00354519 1.13914178 -4.85398664e-03
171 1 14.02082242 0.00352036 1.15975218 -6.35577596e-03
172 1 14.14149463 0.00358538 1.18050093 -5.10698016e-03
173 1 14.26224156 0.00348178 1.20126964 -4.85870271e-03
174 1 14.38290806 0.00348240 1.22224874 -6.37702085e-03
175 1 14.50358423 0.00338785 1.24319344 -5.10092274e-03
176 1 14.62422898 0.00342149 1.26426199 -4.84968636e-03
177 1 14.74483016 0.00344506 1.28544184 -6.37599125e-03
178 1 14.86548220 0.00343314 1.30669139 -4.87710407e-03
179 1 14.98611904 0.00343194 1.32806524 -5.56677439e-03
180 1 15.10673043 0.00333332 1.34947973 -5.93477518e-03
181 1 15.22730826 0.00338739 1.37102354 -6.09206826e-03
182 1 15.34787622 0.00333091 1.39262605 -6.09206826e-03
183 1 15.46840446 0.00335358 1.41431685 -5.98211588e-03
184 1 15.58889163 0.00331708 1.43610560 -5.88223740e-03
185 1 15.70939853 0.00332002 1.45802460 -5.93479953e-03
186 1 15.82990066 0.00316569 1.48002059 -4.77734034e-03
187 1 15.95032346 0.00316036 1.50206687 -6.31776323e-03
188 1 16.07076757 0.00318709 1.52417330 -4.85845554e-03
189 1 16.19123229 0.00318561 1.54641333 -5.48045656e-03
190 1 16.31164414 0.00312632 1.56871041 -5.74774533e-03
191 1 16.43198935 0.00305349 1.59110523 -5.91938606e-03
192 1 16.55239529 0.00298575 1.61363472 -4.72601755e-03
193 1 16.67277347 0.00299076 1.63619720 -6.44309587e-03
194 1 16.79306596 0.00295232 1.65880162 -5.21392668e-03
195 1 16.91338939 0.00290392 1.68143571 -4.32492230e-03
196 1 17.03371818 0.00286520 1.70418759 -6.11554878e-03
197 1 17.15398586 0.00282342 1.72704586 -5.20526136e-03
198 1 17.27432848 0.00279868 1.74996639 -4.31230685e-03
199 1 17.39455459 0.00276104 1.77290100 -6.11716232e-03
200 1 17.51476398 0.00278611 1.79598671 -5.69773107e-03
201 1 17.63501269 0.00266888 1.81910089 -5.99314584e-03
202 1 17.75525599 0.00266526 1.84230755 -4.76350900e-03
203 1 17.87543423 0.00258189 1.86563247 -5.21120302e-03
204 1 17.99563946 0.00254351 1.88894295 -6.01204532e-03
205 1 18.11577362 0.00247860 1.91232642 -5.73233737e-03
206 1 18.23595182 0.00237955 1.93580000 -5.81943467e-03
207 1 18.35604968 0.00235923 1.95933555 -6.32655047e-03
208 1 18.47622811 0.00228793 1.98295012 -5.03614005e-03
209 1 18.59632630 0.00223136 2.00655497 -4.70280803e-03
210 1 18.71638562 0.00217487 2.03029913 -8.65683464e-03
211 1 18.83648408 0.00215844 2.05405970 -5.94692004e-03
212 1 18.95650767 0.00208933 2.07794021 -5.65885778e-03
213 1 19.07660716 0.00202560 2.10180659 -5.99277035e-03
214 1 19.19662694 0.00192330 2.12578739 -6.04066598e-03
215 1 19.31662112 0.00183517 2.14978748 -6.09206826e-03
216 1 19.43667307 0.00185813 2.17388873 -6.09206826e-03
217 1 19.55663409 0.00179925 2.19799757 -6.09206826e-03
218 1 19.67663847 0.00168226 2.22215246 -5.94140402e-03
219 1 19.79660134 0.00159510 2.24636761 -6.09135703e-03
220 1 19.91655300 0.00154836 2.27063687 -6.09135703e-03
221 1 20.03652837 0.00148597 2.29495479 -6.09206826e-03
222 1 20.15646166 0.00141372 2.31931789 -6.22362401e-03
223 1 20.27635109 0.00139088 2.34373581 -6.30618064e-03
224 1 20.39627624 0.00129225 2.36819133 -6.16079228e-03
225 1 20.51617834 0.00119871 2.39267732 -6.90076158e-03
226 1 20.63605197 0.00113699 2.41721322 -7.19612184e-03
227 1 20.75594611 0.00107150 2.44178915 -6.17999120e-03
228 1 20.87581744 0.00102878 2.46641860 -5.85545161e-03
229 1 20.99566959 0.00094965 2.49108221 -6.04373412e-03
230 1 21.11553145 0.00090692 2.51581635 -6.05837687e-03
231 1 21.23538208 0.00080792 2.54057692 -6.22625934e-03
232 1 21.35519094 0.00071504 2.56536821 -6.96326852e-03
233 1 21.47502563 0.00064203 2.59018680 -6.60839364e-03
234 1 21.59481029 0.00058359 2.61507765 -6.08325267e-03
235 1 21.71458927 0.00050198 2.64001578 -5.98999100e-03
236 1 21.83438091 0.00043895 2.66496488 -6.02220795e-03
237 1 21.95415579 0.00033261 2.68995816 -5.94934321e-03
238 1 22.07391796 0.00024625 2.71497953 -6.23085673e-03
239 1 22.19365276 0.00017264 2.74001990 -5.91383044e-03
240 1 22.31341932 0.00010936 2.76510013 -5.82022831e-03
241 1 22.43314902 0.00001376 2.79019741 -6.06616825e-03
242 1 22.55289004 -0.00009612 2.81535385 -6.09206826e-03
243 1 22.67259161 -0.00016703 2.84052099 -6.22108889e-03
244 1 22.79230374 -0.00021072 2.86570109 -6.93510095e-03
245 1 22.91199679 -0.00029058 2.89092798 -6.55067958e-03
246 1 23.03171238 -0.00038779 2.91615762 -5.44215936e-03
247 1 23.15138281 -0.00045956 2.94141671 -5.52453627e-03
248 1 23.27107582 -0.00052231 2.96670598 -6.11677386e-03
249 1 23.39073372 -0.00061283 2.99200589 -5.40422112e-03
250 1 23.51040948 -0.00071662 3.01733913 -5.51625079e-03
251 1 23.63007637 -0.00080642 3.04269622 -6.10817079e-03
252 1 23.74972901 -0.00089594 3.06806841 -5.39058303e-03
253 1 23.86937463 -0.00097667 3.09345779 -5.51111698e-03
254 1 23.98902601 -0.00107573 3.11885687 -6.09959331e-03
255 1 24.10865920 -0.00116533 3.14426729 -5.37708140e-03
256 1 24.22829188 -0.00122795 3.16970043 -5.50601994e-03
257 1 24.34791847 -0.00132036 3.19513178 -6.09132348e-03
258 1 24.46753928 -0.00141617 3.22058379 -5.36406280e-03
259 1 24.58715497 -0.00149784 3.24605186 -5.50114066e-03
260 1 24.70675945 -0.00158713 3.27152350 -6.07613573e-03
261 1 24.82636785 -0.00167292 3.29700309 -5.86576563e-03
262 1 24.94597106 -0.00176567 3.32248733 -5.87763703e-03
263 1 25.06557595 -0.00185143 3.34797678 -5.79509293e-03
264 1 25.18517076 -0.00193793 3.37347167 -6.45795830e-03
265 1 25.30476633 -0.00202708 3.39896990 -6.36067877e-03
266 1 25.42435638 -0.00211351 3.42446854 -5.01672083e-03
267 1 0.12201551 -0.00056688 0.24488637 4.80862070e-03
268 1 0.24395573 -0.00108741 0.24488678 5.62714142e-03
269 1 0.36586988 -0.00110572 0.24509014 6.00619986e-03
270 1 0.48772755 -0.00118845 0.24591928 6.09052560e-03
271 1 0.60930185 -0.00155314 0.24682082 6.09206826e-03
272 1 0.73116080 -0.00173851 0.24791300 5.94781856e-03
273 1 0.85297731 -0.00180899 0.24953229 5.82025544e-03
274 1 0.97454369 -0.00151901 0.25122574 5.95871849e-03
275 1 1.09614813 -0.00151192 0.25341043 6.09232315e-03
276 1 1.21789921 -0.00159471 0.25602562 6.09205550e-03
277 1 1.33959669 -0.00145413 0.25859951 6.08598370e-03
278 1 1.46139856 -0.00160704 0.26147026 6.07933546e-03
279 1 1.58322032 -0.00169849 0.26485287 6.08488133e-03
280 1 1.70471384 -0.00169625 0.26839034 6.08161608e-03
281 1 1.82645389 -0.00184755 0.27236274 6.08881076e-03
282 1 1.94828274 -0.00195646 0.27657335 6.09207793e-03
283 1 2.06961495 -0.00184833 0.28090763 6.09206431e-03
284 1 2.19144423 -0.00159849 0.28559641 6.09206920e-03
285 1 2.31315023 -0.00168868 0.29074058 6.09206749e-03
286 1 2.43491154 -0.00166871 0.29611953 6.09206826e-03
287 1 2.55663832 -0.00160849 0.30153503 6.09206901e-03
288 1 2.67844090 -0.00173373 0.30749779 6.08547783e-03
289 1 2.80001924 -0.00169068 0.31340786 6.07797420e-03
290 1 2.92166091 -0.00162204 0.31971902 6.08460882e-03
291 1 3.04338521 -0.00146577 0.32619195 6.08123045e-03
292 1 3.16512127 -0.00143037 0.33308132 6.08867780e-03
293 1 3.28662376 -0.00146865 0.34000116 6.09206866e-03
294 1 3.40825797 -0.00163702 0.34718522 6.09206839e-03
295 1 3.52988425 -0.00146908 0.35470528 6.09206833e-03
296 1 3.65153244 -0.00150635 0.36243638 6.09206826e-03
297 1 3.77327158 -0.00155415 0.37037407 6.09206824e-03
298 1 3.89478714 -0.00163772 0.37845332 6.09206825e-03
299 1 4.01638624 -0.00161049 0.38683326 6.10477040e-03
300 1 4.13785355 -0.00149271 0.39532369 6.10144793e-03
301 1 4.25956613 -0.00146712 0.40405152 6.09206826e-03
302 1 4.38121801 -0.00144898 0.41297897 6.08473760e-03
303 1 4.50284157 -0.00160547 0.42191988 6.07718969e-03
304 1 4.62448252 -0.00179690 0.43120601 6.08430762e-03
305 1 4.74599065 -0.00146765 0.44079806 6.08084602e-03
306 1 4.86748329 -0.00152801 0.45052474 6.08857506e-03
307 1 4.98897127 -0.00164567 0.46052947 6.09439460e-03
308 1 5.11048145 -0.00172530 0.47071646 6.09360296e-03
309 1 5.23191554 -0.00147774 0.48098152 6.10212083e-03
310 1 5.35326560 -0.00156637 0.49153970 6.09455787e-03
311 1 5.47476206 -0.00157863 0.50229745 6.08457013e-03
312 1 5.59624800 -0.00152099 0.51323750 6.08334006e-03
313 1 5.71761919 -0.00152119 0.52432342 6.09025173e-03
314 1 5.83905172 -0.00162616 0.53563763 6.09206826e-03
315 1 5.96059170 -0.00168267 0.54718782 6.09206826e-03
316 1 6.08194417 -0.00164020 0.55885826 6.08838437e-03
317 1 6.20325303 -0.00151597 0.57086976 6.09329454e-03
318 1 6.32447954 -0.00179969 0.58300809 6.09400483e-03
319 1 6.44588460 -0.00179520 0.59523543 6.08872179e-03
320 1 6.56728744 -0.00176780 0.60761953 6.08812243e-03
321 1 6.68851786 -0.00167029 0.62010515 6.09206826e-03
322 1 6.80982314 -0.00170518 0.63297597 6.09206826e-03
323 1 6.93114046 -0.00158237 0.64606433 6.09206826e-03
324 1 7.05232265 -0.00162803 0.65924024 6.06302327e-03
325 1 7.17352361 -0.00155779 0.67260056 6.06302327e-03
326 1 7.29470986 -0.00155549 0.68609543 5.90236529e-03
327 1 7.41598162 -0.00149952 0.69982269 5.81608564e-03
328 1 7.53724464 -0.00138345 0.71369274 6.10035823e-03
329 1 7.65836334 -0.00151025 0.72773546 5.08741347e-03
330 1 7.77969800 -0.00154495 0.74177967 6.88423117e-03
331 1 7.90082098 -0.00146585 0.75620443 4.95164977e-03
332 1 8.02183102 -0.00145370 0.77053380 5.63292633e-03
333 1 8.14298111 -0.00153543 0.78517759 5.95654755e-03
334 1 8.26413206 -0.00154242 0.79991419 6.00432988e-03
335 1 8.38524498 -0.00147897 0.81478916 6.08757506e-03
336 1 8.50633057 -0.00147017 0.82985641 5.05700823e-03
337 1 8.62744212 -0.00158559 0.84499289 6.83715280e-03
338 1 8.74848508 -0.00150943 0.86024847 4.93632937e-03
339 1 8.86959456 -0.00161322 0.87578957 5.62467055e-03
340 1 8.99057101 -0.00171664 0.89136298 5.95386311e-03
341 1 9.11148973 -0.00169636 0.90715275 6.00199927e-03
342 1 9.23254317 -0.00171147 0.92308020 6.06987486e-03
343 1 9.35337168 -0.00175289 0.93912192 5.01509653e-03
344 1 9.47441691 -0.00170113 0.95525056 6.78511241e-03
345 1 9.59533466 -0.00176137 0.97157345 4.92113473e-03
346 1 9.71625992 -0.00181237 0.98814894 5.61645056e-03
347 1 9.83709127 -0.00170729 1.00482657 5.95118153e-03
348 1 9.95797076 -0.00176163 1.02156700 6.09206826e-03
349 1 10.07875749 -0.00172913 1.03856689 6.09206826e-03
350 1 10.19960821 -0.00176241 1.05556445 6.09206826e-03
351 1 10.32051773 -0.00172587 1.07275618 6.50085567e-03
352 1 10.44136031 -0.00173896 1.09001224 6.38496347e-03
353 1 10.56224835 -0.00176548 1.10739117 5.77251663e-03
354 1 10.68297567 -0.00180177 1.12490841 5.73476969e-03
355 1 10.80382154 -0.00184027 1.14254667 5.94888879e-03
356 1 10.92458719 -0.00199032 1.16030089 6.09206826e-03
357 1 11.04529059 -0.00189246 1.17818746 6.09206826e-03
358 1 11.16603308 -0.00194419 1.19625470 6.09206826e-03
359 1 11.28670596 -0.00203261 1.21441332 6.09206826e-03
360 1 11.40727623 -0.00197374 1.23278721 4.98457375e-03
361 1 11.52802059 -0.00193608 1.25122317 6.69756871e-03
362 1 11.64873049 -0.00189742 1.26977512 5.15375987e-03
363 1 11.76929648 -0.00193016 1.28838846 4.95985007e-03
364 1 11.88990389 -0.00195880 1.30710035 6.48212442e-03
365 1 12.01057578 -0.00202410 1.32603430 5.14927068e-03
366 1 12.13115344 -0.00196738 1.34499467 4.95341033e-03
367 1 12.25171256 -0.00213223 1.36414998 6.46347279e-03
368 1 12.37222518 -0.00199596 1.38331098 5.14043101e-03
369 1 12.49271111 -0.00211279 1.40267109 4.91020010e-03
370 1 12.61333375 -0.00207081 1.42207986 6.45556760e-03
371 1 12.73389121 -0.00208718 1.44163537 4.90989307e-03
372 1 12.85439888 -0.00215320 1.46130229 5.52395043e-03
373 1 12.97487589 -0.00210882 1.48104935 5.87068470e-03
374 1 13.09528415 -0.00211418 1.50093529 4.87920209e-03
375 1 13.21575564 -0.00217541 1.52087660 6.41661913e-03
376 1 13.33618188 -0.00218295 1.54093871 4.89988333e-03
377 1 13.45663273 -0.00215368 1.56105279 5.51681014e-03
378 1 13.57706001 -0.00216053 1.58131292 5.85936171e-03
379 1 13.69738228 -0.00222143 1.60170844 4.85938456e-03
380 1 13.81773694 -0.00221279 1.62210734 6.38254444e-03
381 1 13.93815729 -0.00230901 1.64261838 4.88995824e-03
382 1 14.05851597 -0.00232563 1.66330450 5.57476230e-03
383 1 14.17882600 -0.00222746 1.68406418 5.93743790e-03
384 1 14.29910662 -0.00240148 1.70488087 5.98766457e-03
385 1 14.41941088 -0.00240769 1.72576290 5.96043235e-03
386 1 14.53968593 -0.00236935 1.74683360 4.81637844e-03
387 1 14.66000811 -0.00243367 1.76800785 6.34214196e-03
388 1 14.78029683 -0.00242912 1.78915284 4.87620659e-03
389 1 14.90054209 -0.00244670 1.81041645 5.56677439e-03
390 1 15.02078397 -0.00254323 1.83175749 5.93477518e-03
391 1 15.14095729 -0.00257760 1.85322847 5.98532808e-03
392 1 15.26116423 -0.00256128 1.87479752 5.94249673e-03
393 1 15.38132019 -0.00265421 1.89642724 4.79106117e-03
394 1 15.50148975 -0.00273215 1.91819057 6.34873408e-03
395 1 15.62159282 -0.00262832 1.94002283 5.10720957e-03
396 1 15.74170634 -0.00276260 1.96196344 4.79385489e-03
397 1 15.86185047 -0.00284936 1.98392993 6.33054845e-03
398 1 15.98201202 -0.00293076 2.00605101 5.10009402e-03
399 1 16.10203614 -0.00295508 2.02817302 4.78369059e-03
400 1 16.22219274 -0.00292521 2.05040931 6.31203828e-03
401 1 16.34227504 -0.00298438 2.07272060 5.09300092e-03
402 1 16.46226697 -0.00299882 2.09511465 4.74903927e-03
403 1 16.58230350 -0.00304858 2.11765913 6.32830758e-03
404 1 16.70240859 -0.00307550 2.14018804 5.08343922e-03
405 1 16.82244337 -0.00313451 2.16288335 4.32591159e-03
406 1 16.94243170 -0.00324970 2.18556819 6.00104739e-03
407 1 17.06245519 -0.00321003 2.20837108 5.21119202e-03
408 1 17.18235840 -0.00333283 2.23119204 6.09206826e-03
409 1 17.30237300 -0.00340362 2.25411418 6.05153388e-03
410 1 17.42229324 -0.00341069 2.27709879 5.91774538e-03
411 1 17.54227776 -0.00348841 2.30015284 6.22305381e-03
412 1 17.66222668 -0.00350133 2.32333955 5.03791106e-03
413 1 17.78213450 -0.00358015 2.34657452 4.72607940e-03
414 1 17.90208357 -0.00359822 2.36985294 8.71836332e-03
415 1 18.02199218 -0.00370221 2.39320781 5.95355142e-03
416 1 18.14188816 -0.00372054 2.41660747 5.36960420e-03
417 1 18.26177386 -0.00386926 2.44008384 6.03255871e-03
418 1 18.38163453 -0.00390343 2.46360298 5.00245570e-03
419 1 18.50144274 -0.00398300 2.48719304 4.70280803e-03
420 1 18.62129734 -0.00397468 2.51089002 8.65685956e-03
421 1 18.74112932 -0.00404664 2.53464354 5.94692135e-03
422 1 18.86098615 -0.00413611 2.55841037 5.65886656e-03
423 1 18.98081747 -0.00418121 2.58228847 5.98663784e-03
424 1 19.10057290 -0.00423878 2.60622100 6.03862808e-03
425 1 19.22036874 -0.00432475 2.63018043 6.08821513e-03
426 1 19.34019450 -0.00437601 2.65419912 6.17296108e-03
427 1 19.46000290 -0.00444547 2.67829914 6.04911048e-03
428 1 19.57976594 -0.00445516 2.70241049 6.99423467e-03
429 1 19.69953785 -0.00451471 2.72659580 6.49916941e-03
430 1 19.81930935 -0.00459979 2.75082187 6.05139015e-03
431 1 19.93902490 -0.00463801 2.77514174 6.07023001e-03
432 1 20.05877499 -0.00473557 2.79943793 6.06423220e-03
433 1 20.17851422 -0.00481048 2.82381083 6.03339671e-03
434 1 20.29826890 -0.00490653 2.84820398 6.06123277e-03
435 1 20.41796418 -0.00493510 2.87267241 6.05523286e-03
436 1 20.53767470 -0.00503693 2.89718235 6.01539697e-03
437 1 20.65740306 -0.00506624 2.92174009 6.05223237e-03
438 1 20.77711611 -0.00516684 2.94630112 6.04623034e-03
439 1 20.89676041 -0.00523453 2.97093130 5.99739088e-03
440 1 21.01646981 -0.00530498 2.99562187 6.03386113e-03
441 1 21.13616399 -0.00537502 3.02036657 6.06015229e-03
442 1 21.25580638 -0.00546504 3.04512277 6.93292310e-03
443 1 21.37543545 -0.00550917 3.06994117 6.60839364e-03
444 1 21.49508355 -0.00559829 3.09479240 6.08325267e-03
445 1 21.61472614 -0.00564824 3.11966898 5.98999100e-03
446 1 21.73437878 -0.00571613 3.14459746 6.02220795e-03
447 1 21.85401355 -0.00578433 3.16955254 5.94934321e-03
448 1 21.97364234 -0.00588501 3.19454272 6.00521256e-03
449 1 22.09328286 -0.00595080 3.21959130 5.96042100e-03
450 1 22.21288208 -0.00601114 3.24463646 6.01327673e-03
451 1 22.33250965 -0.00606451 3.26972844 6.06616825e-03
452 1 22.45212208 -0.00615258 3.29483874 6.09206826e-03
453 1 22.57173604 -0.00623306 3.31998382 6.22108889e-03
454 1 22.69135407 -0.00631062 3.34514769 6.93510095e-03
455 1 22.81095530 -0.00638280 3.37034240 6.55067958e-03
456 1 22.93053264 -0.00646073 3.39556439 5.44215936e-03
457 1 23.05013621 -0.00654853 3.42079657 5.52453627e-03
458 1 23.16973584 -0.00660881 3.44606642 6.09206826e-03
459 1 23.28932131 -0.00667623 3.47136361 5.52769247e-03
460 1 23.40891107 -0.00676152 3.49667006 5.54504444e-03
461 1 23.52850065 -0.00683168 3.52201929 6.09206826e-03
462 1 23.64806675 -0.00691720 3.54737056 5.52433613e-03
463 1 23.76765870 -0.00699207 3.57274160 5.54169116e-03
464 1 23.88723422 -0.00705116 3.59812656 6.09959331e-03
465 1 24.00681108 -0.00713946 3.62352949 5.37708140e-03
466 1 24.12639605 -0.00721510 3.64894833 5.50601994e-03
467 1 24.24597598 -0.00729264 3.67438332 6.09132348e-03
468 1 24.36554474 -0.00736869 3.69982933 5.36406280e-03
469 1 24.48512438 -0.00744577 3.72528514 5.50114066e-03
470 1 24.60469632 -0.00751879 3.75074400 6.07613573e-03
471 1 24.72428071 -0.00760101 3.77621955 5.86576563e-03
472 1 24.84385676 -0.00767540 3.80170104 5.87763704e-03
473 1 24.96343299 -0.00775092 3.82718430 5.79509293e-03
474 1 25.08301279 -0.00783229 3.85267851 6.45795830e-03
475 1 25.20259141 -0.00790995 3.87817202 6.36067877e-03
476 1 25.32217268 -0.00798838 3.90366966 5.01672083e-03
477 1 0.12257624 1.20936168 -0.24468484 -5.06599779e-03
478 1 0.24519415 1.20910315 -0.24472784 -5.96099493e-03
479 1 0.36805862 1.20862682 -0.24424241 -6.06828787e-03
480 1 0.49095107 1.20875332 -0.24359198 -6.09081051e-03
481 1 0.61378458 1.20872776 -0.24249372 -6.09597885e-03
482 1 0.73661054 1.20879197 -0.24121701 -6.09677124e-03
483 1 0.85971201 1.20852423 -0.23950164 -6.09261604e-03
484 1 0.98261372 1.20870245 -0.23758631 -6.09210769e-03
485 1 1.10566864 1.20850246 -0.23504768 -6.09159289e-03
486 1 1.22844403 1.20852535 -0.23243242 -6.09258964e-03
487 1 1.35133241 1.20898776 -0.22975973 -6.11404233e-03
488 1 1.47411829 1.20904426 -0.22651033 -6.12924398e-03
489 1 1.59682370 1.20873486 -0.22307535 -6.13810471e-03
490 1 1.71960939 1.20877871 -0.21947777 -6.10740278e-03
491 1 1.84249321 1.20870862 -0.21545135 -6.11299929e-03
492 1 1.96536346 1.20878360 -0.21085843 -6.11651709e-03
493 1 2.08811050 1.20865450 -0.20655712 -6.10892752e-03
494 1 2.21091174 1.20905885 -0.20169994 -6.08383817e-03
495 1 2.33376223 1.20922042 -0.19649925 -6.07811671e-03
496 1 2.45641312 1.20910469 -0.19093283 -6.12167487e-03
497 1 2.57900986 1.20892547 -0.18533525 -6.12891596e-03
498 1 2.70172882 1.20915193 -0.17953592 -6.13439434e-03
499 1 2.82452905 1.20932419 -0.17324068 -6.11877956e-03
500 1 2.94720057 1.20912356 -0.16678073 -6.09486572e-03
501 1 3.06981917 1.20932441 -0.16010968 -6.09206826e-03
502 1 3.19261302 1.20930870 -0.15316220 -6.09206855e-03
503 1 3.31517090 1.20929500 -0.14591107 -6.09206932e-03
504 1 3.43755410 1.20936586 -0.13846835 -6.11378764e-03
505 1 3.56040063 1.20969635 -0.13085463 -6.10132488e-03
506 1 3.68275555 1.20977926 -0.12293058 -6.14015253e-03
507 1 3.80520760 1.20966004 -0.11493787 -6.18862768e-03
508 1 3.92757401 1.20985582 -0.10644180 -6.20494803e-03
509 1 4.04999164 1.20985510 -0.09807896 -6.16689241e-03
510 1 4.17232251 1.20986042 -0.08929738 -6.13536340e-03
511 1 4.29473039 1.20982838 -0.08047002 -6.09206826e-03
512 1 4.41706435 1.20981423 -0.07141508 -6.09528258e-03
513 1 4.53949793 1.20999275 -0.06223820 -6.10197805e-03
514 1 4.66197052 1.20991560 -0.05281001 -6.09705471e-03
515 1 4.78425420 1.21002592 -0.04310487 -6.06436498e-03
516 1 4.90670299 1.20988871 -0.03308098 -6.12133674e-03
517 1 5.02889650 1.21002768 -0.02303273 -6.20974613e-03
518 1 5.15117614 1.21016421 -0.01273074 -6.24802334e-03
519 1 5.27335070 1.21023076 -0.00218249 -6.19819175e-03
520 1 5.39567833 1.21001769 0.00854511 -6.15088270e-03
521 1 5.51799885 1.21009280 0.01947095 -6.13301438e-03
522 1 5.64014990 1.21032122 0.03059792 -6.10131989e-03
523 1 5.76243702 1.21030364 0.04192743 -6.05757291e-03
524 1 5.88457937 1.21045164 0.05343940 -6.04491082e-03
525 1 6.00660807 1.21040361 0.06528505 -6.05437557e-03
526 1 6.12880507 1.21059717 0.07713769 -6.06489385e-03
527 1 6.25082165 1.21069565 0.08919742 -6.09206826e-03
528 1 6.37287423 1.21080159 0.10149811 -6.09206826e-03
529 1 6.49494654 1.21063533 0.11398409 -6.09979510e-03
530 1 6.61690921 1.21069262 0.12665440 -6.12512692e-03
531 1 6.73892850 1.21085242 0.13944577 -6.16578501e-03
532 1 6.86092471 1.21073815 0.15257958 -6.26929389e-03
533 1 6.98274369 1.21078765 0.16569159 -6.28695529e-03
534 1 7.10477926 1.21100302 0.17886646 -6.28583704e-03
535 1 7.22666533 1.21092482 0.19234919 -6.23881179e-03
536 1 7.34864991 1.21097441 0.20605059 -6.30184580e-03