ITEM: TIMESTEP
0
ITEM: NUMBER OF ATOMS
10710
ITEM: BOX BOUNDS ff ff ff
-2.0 25.32225480312802
-2.0076758929374074 3.3744831795382595
-2.245999476759542 12.997128577898781
ITEM: ATOMS id type x y z q
1 2 0.00000000 0.00000000 0.24527477 3.35542180e-03
2 2 0.00000000 0.00000000 -0.24472523 -3.35542180e-03
3 2 0.00000000 1.21000000 0.24527477 3.41686920e-03
4 2 0.00000000 1.21000000 -0.24472523 -3.41686920e-03
5 1 23.07859470 0.14779544 10.96421312 3.37776783e-03
6 1 23.32225480 0.16544241 10.53926060 -3.37776783e-03
7 1 23.04820303 1.35671036 10.99712858 3.41686920e-03
8 1 23.29183225 1.37448318 10.57217427 -3.41686920e-03
9 2 0.00000000 0.00000000 -0.12222523 0.00000000e+00
10 2 0.00000000 0.00000000 0.00027477 0.00000000e+00
11 2 0.00000000 0.00000000 0.12277477 0.00000000e+00
12 2 0.00000000 0.12100000 0.24527477 5.18139194e-03
13 2 0.00000000 0.24200000 0.24527477 5.50362000e-03
14 2 0.00000000 0.36300000 0.24527477 5.01501884e-03
15 2 0.00000000 0.48400000 0.24527477 5.50904170e-03
16 2 0.00000000 0.60500000 0.24527477 6.02408537e-03
17 2 0.00000000 0.72600000 0.24527477 6.86123120e-03
18 2 0.00000000 0.84700000 0.24527477 6.83241897e-03
19 2 0.00000000 0.96800000 0.24527477 5.84994208e-03
20 2 0.00000000 1.08900000 0.24527477 4.96878236e-03
21 2 0.00000000 1.21000000 -0.12222523 0.00000000e+00
22 2 0.00000000 1.21000000 0.00027477 0.00000000e+00
23 2 0.00000000 1.21000000 0.12277477 0.00000000e+00
24 2 0.00000000 0.12100000 -0.24472523 -5.18139194e-03
25 2 0.00000000 0.24200000 -0.24472523 -5.50362000e-03
26 2 0.00000000 0.36300000 -0.24472523 -5.01501884e-03
27 2 0.00000000 0.48400000 -0.24472523 -5.50904170e-03
28 2 0.00000000 0.60500000 -0.24472523 -6.02408537e-03
29 2 0.00000000 0.72600000 -0.24472523 -6.86123120e-03
30 2 0.00000000 0.84700000 -0.24472523 -6.83241897e-03
31 2 0.00000000 0.96800000 -0.24472523 -5.84994208e-03
32 2 0.00000000 1.08900000 -0.24472523 -4.96878236e-03
33 1 23.26133391 0.16102707 10.64550271 0.00000000e+00
34 1 23.20041840 0.15661380 10.75173657 0.00000000e+00
35 1 23.13950417 0.15220438 10.85797152 0.00000000e+00
36 1 23.07556181 0.26868988 10.96749297 5.05002864e-03
37 1 23.07252980 0.38958235 10.97077447 5.64089052e-03
38 1 23.06949649 0.51047558 10.97405651 5.44128437e-03
39 1 23.06647308 0.63136810 10.97734563 6.40224548e-03
40 1 23.06342287 0.75225680 10.98063230 6.88148315e-03
41 1 23.06038602 0.87314619 10.98391923 6.11583422e-03
42 1 23.05734141 0.99403922 10.98721563 5.69198232e-03
43 1 23.05428596 1.11493499 10.99052362 6.01735171e-03
44 1 23.05123951 1.23582316 10.99382424 5.43527194e-03
45 1 23.23092170 1.37004069 10.67841451 0.00000000e+00
46 1 23.17001171 1.36559838 10.78464672 0.00000000e+00
47 1 23.10910422 1.36115491 10.89088308 0.00000000e+00
48 1 23.31921661 0.28634006 10.54254629 -5.05002864e-03
49 1 23.31618131 0.40724513 10.54583681 -5.64089052e-03
50 1 23.31314460 0.52814597 10.54910692 -5.44128437e-03
51 1 23.31010995 0.64905097 10.55238558 -6.40224548e-03
52 1 23.30707204 0.76995760 10.55567518 -6.88148315e-03
53 1 23.30402874 0.89086807 10.55898328 -6.11583422e-03
54 1 23.30098129 1.01177886 10.56226814 -5.69198232e-03
55 1 23.29793155 1.13268409 10.56557180 -6.01735171e-03
56 1 23.29488650 1.25358385 10.56887699 -5.43527194e-03
57 1 0.12391893 0.00330755 -0.24599948 -4.80862070e-03
58 1 0.24828046 0.00587362 -0.24503076 -5.62714142e-03
59 1 0.37272698 0.00626810 -0.24340057 -6.00619986e-03
60 1 0.49801713 0.00619360 -0.24065192 -6.09052560e-03
61 1 0.62265907 0.00636012 -0.23643493 -6.09206826e-03
62 1 0.74743395 0.00764128 -0.23099168 -5.94781856e-03
63 1 0.87196717 0.00893748 -0.22454603 -5.82025544e-03
64 1 0.99624985 0.00816042 -0.21455248 -5.95871849e-03
65 1 1.12186131 0.00848398 -0.20492708 -6.09232315e-03
66 1 1.24659398 0.00807098 -0.19442340 -6.09205550e-03
67 1 1.37062132 0.00857790 -0.18197712 -6.08598370e-03
68 1 1.49470846 0.00972329 -0.16691970 -6.07933546e-03
69 1 1.61853077 0.01008626 -0.15293362 -6.08488133e-03
70 1 1.74214384 0.01013129 -0.13670412 -6.08161608e-03
71 1 1.86538817 0.01033010 -0.11946033 -6.08881076e-03
72 1 1.98965617 0.01024927 -0.10060371 -6.09207793e-03
73 1 2.11313573 0.01069077 -0.08112183 -6.09206431e-03
74 1 2.23628242 0.01179246 -0.05954200 -6.09206920e-03
75 1 2.35918826 0.01190049 -0.03755314 -6.09206749e-03
76 1 2.48143032 0.01179807 -0.01457085 -6.09206826e-03
77 1 2.60330145 0.01207709 0.00930262 -6.09206901e-03
78 1 2.72556046 0.01136488 0.03400152 -6.08547783e-03
79 1 2.84717925 0.01204693 0.05974706 -6.07797420e-03
80 1 2.96856520 0.01348138 0.08659262 -6.08460882e-03
81 1 3.08983854 0.01321139 0.11419162 -6.08123045e-03
82 1 3.21056571 0.01381247 0.14307575 -6.08867780e-03
83 1 3.33092012 0.01434989 0.17281247 -6.09206866e-03
84 1 3.45150320 0.01481297 0.20362395 -6.09206839e-03
85 1 3.57146717 0.01464377 0.23463965 -6.09206833e-03
86 1 3.69151544 0.01454136 0.26698812 -6.09206826e-03
87 1 3.81154648 0.01570460 0.30008419 -6.09206824e-03
88 1 3.93091135 0.01633214 0.33352015 -6.09206825e-03
89 1 4.05028652 0.01606494 0.36749634 -6.10477040e-03
90 1 4.16933214 0.01713340 0.40243201 -6.10144793e-03
91 1 4.28760913 0.01754110 0.43821100 -6.09206826e-03
92 1 4.40649690 0.01779506 0.47433724 -6.08473760e-03
93 1 4.52433602 0.01818644 0.51119896 -6.07718969e-03
94 1 4.64223491 0.01897586 0.54908371 -6.08430762e-03
95 1 4.75987505 0.01978800 0.58724248 -6.08084602e-03
96 1 4.87762624 0.02009720 0.62580637 -6.08857506e-03
97 1 4.99514774 0.02123046 0.66551498 -6.09439460e-03
98 1 5.11234815 0.02123964 0.70578533 -6.09360296e-03
99 1 5.22895421 0.02190917 0.74715444 -6.10212083e-03
100 1 5.34576215 0.02218374 0.78857091 -6.09455787e-03
101 1 5.46186042 0.02336154 0.83041304 -6.08457013e-03
102 1 5.57780660 0.02375497 0.87304269 -6.08334006e-03
103 1 5.69412306 0.02415977 0.91675590 -6.09025173e-03
104 1 5.80941159 0.02473989 0.96047794 -6.09206826e-03
105 1 5.92478685 0.02532285 1.00467248 -6.09206826e-03
106 1 6.03986825 0.02638541 1.04955208 -6.08838437e-03
107 1 6.15456275 0.02698647 1.09481468 -6.09329454e-03
108 1 6.26968420 0.02712895 1.14056865 -6.09400483e-03
109 1 6.38423267 0.02803602 1.18690304 -6.08872179e-03
110 1 6.49865150 0.02894208 1.23415811 -6.08812243e-03
111 1 6.61235949 0.02960990 1.28151027 -6.09206826e-03
112 1 6.72637382 0.03018396 1.32905596 -6.09206826e-03
113 1 6.83981309 0.03077143 1.37698672 -6.09206826e-03
114 1 6.95285266 0.03161931 1.42584013 -6.06302327e-03
115 1 7.06608172 0.03177510 1.47496075 -6.06302327e-03
116 1 7.17915846 0.03246867 1.52470723 -5.90236529e-03
117 1 7.29177139 0.03321708 1.57479623 -5.81608564e-03
118 1 7.40424365 0.03390457 1.62504646 -6.10035823e-03
119 1 7.51666456 0.03453146 1.67578972 -5.08741334e-03
120 1 7.62868840 0.03513705 1.72681245 -6.87719096e-03
121 1 7.74044192 0.03596441 1.77813891 -5.18694999e-03
122 1 7.85260220 0.03631170 1.82973412 -5.00655937e-03
123 1 7.96403149 0.03709943 1.88182904 -7.17602109e-03
124 1 8.07545921 0.03808029 1.93420510 -5.64123658e-03
125 1 8.18705034 0.03885198 1.98695383 -5.91249038e-03
126 1 8.29799290 0.03939157 2.03984187 -5.77202514e-03
127 1 8.40888344 0.04012144 2.09302880 -5.95689302e-03
128 1 8.51988087 0.04099606 2.14659181 -6.09206826e-03
129 1 8.63054868 0.04139684 2.20053853 -6.09206826e-03
130 1 8.74097630 0.04212397 2.25462516 -6.09206826e-03
131 1 8.85127980 0.04293990 2.30891959 -6.00199927e-03
132 1 8.96163334 0.04408053 2.36356788 -6.06987486e-03
133 1 9.07176211 0.04484394 2.41853281 -5.02835518e-03
134 1 9.18164368 0.04550500 2.47370845 -6.79157831e-03
135 1 9.29116757 0.04649383 2.52929324 -4.92113473e-03
136 1 9.40092096 0.04700267 2.58502659 -5.56259368e-03
137 1 9.51047610 0.04755772 2.64116051 -5.94323360e-03
138 1 9.61979452 0.04853083 2.69766668 -5.00637084e-03
139 1 9.72881232 0.04912291 2.75399151 -6.75640181e-03
140 1 9.83778822 0.04965570 2.81064131 -4.91035923e-03
141 1 9.94657091 0.05038491 2.86758886 -5.75765677e-03
142 1 10.05540816 0.05116924 2.92459528 -6.37465021e-03
143 1 10.16412392 0.05210529 2.98176912 -6.33172667e-03
144 1 10.27263861 0.05292423 3.03913483 -5.77695765e-03
145 1 10.38121006 0.05389711 3.09670881 -5.75602868e-03
146 1 10.48959436 0.05458456 3.15437666 -5.94989338e-03
147 1 10.59767203 0.05527519 3.21243262 -6.09206826e-03
148 1 10.70580833 0.05625033 3.27064953 -6.09206826e-03
149 1 10.81381951 0.05687220 3.32905438 -6.49862787e-03
150 1 10.92174107 0.05775184 3.38769041 -6.47806478e-03
151 1 11.02958016 0.05837073 3.44632673 -5.98398651e-03
152 1 11.13733796 0.05927300 3.50526103 -5.97118729e-03
153 1 11.24493691 0.05993171 3.56419932 -6.32827249e-03
154 1 11.35249498 0.06075016 3.62323006 -6.38296841e-03
155 1 11.45998483 0.06174547 3.68243580 -6.09206826e-03
156 1 11.56730820 0.06237158 3.74187277 -5.92176613e-03
157 1 11.67454338 0.06321273 3.80132339 -5.84196899e-03
158 1 11.78162157 0.06398828 3.86086175 -5.89327746e-03
159 1 11.88875719 0.06484833 3.92070936 -4.96011300e-03
160 1 11.99576244 0.06566971 3.98053111 -6.65158567e-03
161 1 12.10267789 0.06648093 4.04053716 -4.90989307e-03
162 1 12.20968380 0.06728430 4.10058520 -5.52395043e-03
163 1 12.31650080 0.06819239 4.16077144 -5.87068470e-03
164 1 12.42323830 0.06900353 4.22101825 -4.88602194e-03
165 1 12.52989353 0.06986088 4.28137018 -6.40279006e-03
166 1 12.63651223 0.07066686 4.34178728 -5.12407601e-03
167 1 12.74305923 0.07146856 4.40232040 -4.88216806e-03
168 1 12.84957038 0.07227937 4.46291673 -6.38017819e-03
169 1 12.95600010 0.07321629 4.52359912 -5.11373203e-03
170 1 13.06238037 0.07402206 4.58435756 -4.85398664e-03
171 1 13.16874806 0.07484162 4.64520583 -6.35577596e-03
172 1 13.27498531 0.07575723 4.70611996 -5.10698016e-03
173 1 13.38128167 0.07652506 4.76706556 -4.85870271e-03
174 1 13.48744385 0.07738239 4.82816332 -6.37702085e-03
175 1 13.59362199 0.07816621 4.88922607 -5.10092274e-03
176 1 13.69973497 0.07906350 4.95036781 -4.84968636e-03
177 1 13.80577953 0.07994198 5.01157929 -6.37599125e-03
178 1 13.91183643 0.08081090 5.07283756 -4.87710407e-03
179 1 14.01785387 0.08168295 5.13416075 -5.56677439e-03
180 1 14.12384212 0.08249490 5.19551266 -5.93477518e-03
181 1 14.22976970 0.08339892 5.25693299 -6.09206826e-03
182 1 14.33568462 0.08425087 5.31836487 -6.09206826e-03
183 1 14.44155150 0.08514079 5.37983714 -5.98211588e-03
184 1 14.54736920 0.08600142 5.44134957 -5.88223740e-03
185 1 14.65317867 0.08689074 5.50293556 -5.93479953e-03
186 1 14.75897931 0.08771539 5.56453047 -4.77734034e-03
187 1 14.86471781 0.08860508 5.62614980 -6.31776323e-03
188 1 14.97045305 0.08951832 5.68777577 -4.85845554e-03
189 1 15.07617187 0.09041243 5.74945369 -5.48045656e-03
190 1 15.18185707 0.09129340 5.81114790 -5.74774533e-03
191 1 15.28751025 0.09216617 5.87286616 -5.91938606e-03
192 1 15.39316136 0.09305010 5.93462575 -4.72601755e-03
193 1 15.49879383 0.09394613 5.99639702 -6.44309587e-03
194 1 15.60441478 0.09484773 6.05815705 -5.21392668e-03
195 1 15.71002832 0.09574722 6.11992203 -4.32492230e-03
196 1 15.81562409 0.09663976 6.18171829 -6.11554878e-03
197 1 15.92119812 0.09753972 6.24352475 -5.20526136e-03
198 1 16.02677744 0.09845061 6.30533835 -4.31230685e-03
199 1 16.13232813 0.09934697 6.36715387 -6.11716232e-03
200 1 16.23787038 0.10026609 6.42898483 -5.69773107e-03
201 1 16.34341879 0.10116765 6.49081189 -5.99314584e-03
202 1 16.44895505 0.10208204 6.55264215 -4.76350900e-03
203 1 16.55448599 0.10300532 6.61447010 -5.21120302e-03
204 1 16.66001060 0.10393000 6.67629671 -6.01204532e-03
205 1 16.76553373 0.10484303 6.73812813 -5.73233737e-03
206 1 16.87105730 0.10575201 6.79994993 -5.81943467e-03
207 1 16.97657661 0.10668118 6.86177187 -6.32655047e-03
208 1 17.08208894 0.10761067 6.92357212 -5.03614005e-03
209 1 17.18760397 0.10853447 6.98538248 -4.70280803e-03
210 1 17.29311984 0.10945431 7.04718539 -8.65683464e-03
211 1 17.39863242 0.11038772 7.10897248 -5.94692004e-03
212 1 17.50417092 0.11133386 7.17073063 -5.65885778e-03
213 1 17.60968544 0.11226844 7.23250343 -5.99277035e-03
214 1 17.71522933 0.11321870 7.29423734 -6.04066598e-03
215 1 17.82077434 0.11416606 7.35597262 -6.09206826e-03
216 1 17.92630862 0.11509027 7.41766469 -6.09206826e-03
217 1 18.03186533 0.11603701 7.47937266 -6.09206826e-03
218 1 18.13741256 0.11699731 7.54106355 -5.94140402e-03
219 1 18.24297500 0.11795531 7.60273596 -6.09135703e-03
220 1 18.34854302 0.11890148 7.66438950 -6.09135703e-03
221 1 18.45410899 0.11984673 7.72602374 -6.09206826e-03
222 1 18.55969284 0.12080944 7.78763416 -6.22362401e-03
223 1 18.66529943 0.12175035 7.84922836 -6.30618064e-03
224 1 18.77089512 0.12272840 7.91080323 -6.16079228e-03
225 1 18.87650004 0.12369758 7.97236940 -6.90076158e-03
226 1 18.98212318 0.12465515 8.03391431 -7.19612184e-03
227 1 19.08774135 0.12561691 8.09543601 -6.17999120e-03
228 1 19.19337588 0.12657055 8.15693091 -5.85545161e-03
229 1 19.29902166 0.12753915 8.21841333 -6.04373412e-03
230 1 19.40467303 0.12848501 8.27985460 -6.05837687e-03
231 1 19.51033911 0.12948114 8.34126985 -6.22625934e-03
232 1 19.61603153 0.13046390 8.40267712 -6.96326852e-03
233 1 19.72170445 0.13143720 8.46406299 -6.60839364e-03
234 1 19.82742162 0.13240356 8.52541122 -6.08325267e-03
235 1 19.93316003 0.13339310 8.58672846 -5.98999100e-03
236 1 20.03888634 0.13435823 8.64803950 -6.02220795e-03
237 1 20.14463586 0.13536733 8.70931310 -5.94934321e-03
238 1 20.25039872 0.13635846 8.77057188 -6.23085673e-03
239 1 20.35618166 0.13734075 8.83182705 -5.91383044e-03
240 1 20.46195164 0.13832015 8.89303395 -5.82022831e-03
241 1 20.56774745 0.13932377 8.95423925 -6.06616825e-03
242 1 20.67355259 0.14033673 9.01539564 -6.09206826e-03
243 1 20.77938797 0.14132224 9.07655502 -6.22108889e-03
244 1 20.88521710 0.14227442 9.13769311 -6.93510095e-03
245 1 20.99107698 0.14326834 9.19879514 -6.55067958e-03
246 1 21.09691753 0.14428317 9.25988735 -5.44215936e-03
247 1 21.20280187 0.14527122 9.32096734 -5.52453627e-03
248 1 21.30867562 0.14624523 9.38201451 -6.11677386e-03
249 1 21.41458721 0.14725560 9.44305086 -5.40422112e-03
250 1 21.52048806 0.14827826 9.50405735 -5.51625079e-03
251 1 21.62640267 0.14927996 9.56504488 -6.10817079e-03
252 1 21.73233409 0.15028795 9.62601536 -5.39058303e-03
253 1 21.83827187 0.15128397 9.68697269 -5.51111698e-03
254 1 21.94421070 0.15230344 9.74791727 -6.09959331e-03
255 1 22.05017457 0.15331829 9.80885292 -5.37708140e-03
256 1 22.15613991 0.15429156 9.86976158 -5.50601994e-03
257 1 22.26211195 0.15530231 9.93067695 -6.09132348e-03
258 1 22.36809705 0.15632169 9.99156881 -5.36406280e-03
259 1 22.47408791 0.15732427 10.05244637 -5.50114066e-03
260 1 22.58010094 0.15834240 10.11332118 -6.07613573e-03
261 1 22.68610681 0.15934914 10.17418854 -5.86576563e-03
262 1 22.79212883 0.16037823 10.23504135 -5.87763703e-03
263 1 22.89814350 0.16139414 10.29589126 -5.79509293e-03
264 1 23.00417343 0.16241066 10.35673653 -6.45795830e-03
265 1 23.11019628 0.16342202 10.41757866 -6.36067877e-03
266 1 23.21622336 0.16443245 10.47842202 -5.01672083e-03
267 1 0.12101576 -0.00262700 0.24368884 4.80862070e-03
268 1 0.24179187 -0.00498375 0.24385323 5.62714142e-03
269 1 0.36245796 -0.00504222 0.24490520 6.00619986e-03
270 1 0.48280016 -0.00532762 0.24882566 6.09052560e-03
271 1 0.60193074 -0.00684105 0.25292979 6.09206826e-03
272 1 0.72237860 -0.00753905 0.25786400 5.94781856e-03
273 1 0.84251002 -0.00767589 0.26525404 5.82025544e-03
274 1 0.96152062 -0.00614465 0.27281900 5.95871849e-03
275 1 1.08059224 -0.00586679 0.28243156 6.09232315e-03
276 1 1.20022669 -0.00602448 0.29401459 6.09205550e-03
277 1 1.31962475 -0.00519569 0.30534271 6.08598370e-03
278 1 1.43945605 -0.00561843 0.31782927 6.07933546e-03
279 1 1.55913449 -0.00576941 0.33260120 6.08488133e-03
280 1 1.67741936 -0.00548849 0.34780508 6.08161608e-03
281 1 1.79662933 -0.00585289 0.36487389 6.08881076e-03
282 1 1.91603816 -0.00600297 0.38300626 6.09207793e-03
283 1 2.03338947 -0.00524628 0.40134418 6.09206431e-03
284 1 2.15262317 -0.00393268 0.42132677 6.09206920e-03
285 1 2.27110410 -0.00397962 0.44311391 6.09206749e-03
286 1 2.38965577 -0.00358480 0.46578542 6.09206826e-03
287 1 2.50808879 -0.00301835 0.48854735 6.09206901e-03
288 1 2.62650701 -0.00313341 0.51356846 6.08547783e-03
289 1 2.74413917 -0.00256497 0.53820150 6.07797420e-03
290 1 2.86174167 -0.00192812 0.56438635 6.08460882e-03
291 1 2.97955233 -0.00093900 0.59124953 6.08123045e-03
292 1 3.09716643 -0.00041021 0.61967690 6.08867780e-03
293 1 3.21387479 -0.00016461 0.64801188 6.09206866e-03
294 1 3.33097767 -0.00037734 0.67742297 6.09206839e-03
295 1 3.44776674 0.00070542 0.70807432 6.09206833e-03
296 1 3.56454722 0.00098510 0.73946648 6.09206826e-03
297 1 3.68147930 0.00124795 0.77166648 6.09206824e-03
298 1 3.79755226 0.00141350 0.80417607 6.09206825e-03
299 1 3.91371772 0.00195676 0.83783414 6.10477040e-03
300 1 4.02932790 0.00284582 0.87174112 6.10144793e-03
301 1 4.14563130 0.00341575 0.90667464 6.09206826e-03
302 1 4.26157740 0.00396162 0.94220426 6.08473760e-03
303 1 4.37745405 0.00392683 0.97776425 6.07718969e-03
304 1 4.49313338 0.00378418 1.01448191 6.08430762e-03
305 1 4.60810747 0.00540988 1.05217553 6.08084602e-03
306 1 4.72296282 0.00571989 1.09021745 6.08857506e-03
307 1 4.83761946 0.00583228 1.12911248 6.09439460e-03
308 1 4.95217421 0.00609222 1.16866282 6.09360296e-03
309 1 5.06642740 0.00743912 1.20841382 6.10212083e-03
310 1 5.18024613 0.00770974 1.24896391 6.09455787e-03
311 1 5.29434986 0.00821269 1.29028973 6.08457013e-03
312 1 5.40828224 0.00895500 1.33214034 6.08334006e-03
313 1 5.52176400 0.00950630 1.37432980 6.09025173e-03
314 1 5.63526902 0.00975496 1.41726575 6.09206826e-03
315 1 5.74890055 0.01015451 1.46096709 6.09206826e-03
316 1 5.86189779 0.01086446 1.50488062 6.08838437e-03
317 1 5.97449852 0.01182077 1.54974552 6.09329454e-03
318 1 6.08681101 0.01157462 1.59485578 6.09400483e-03
319 1 6.19953956 0.01218640 1.64038255 6.08872179e-03
320 1 6.31212737 0.01287471 1.68636235 6.08812243e-03
321 1 6.42418955 0.01378864 1.73245576 6.09206826e-03
322 1 6.53614611 0.01428703 1.77965873 6.09206826e-03
323 1 6.64796039 0.01524409 1.82748954 6.09206826e-03
324 1 6.75937217 0.01573766 1.87540591 6.06302327e-03
325 1 6.87069035 0.01657392 1.92384789 6.06302327e-03
326 1 6.98188175 0.01721907 1.97260139 5.90236529e-03
327 1 7.09310730 0.01800301 2.02203990 5.81608564e-03
328 1 7.20420748 0.01894679 2.07180349 6.10035823e-03
329 1 7.31485276 0.01926168 2.12185340 5.08741347e-03
330 1 7.42602708 0.01982211 2.17209361 6.88423117e-03
331 1 7.53638867 0.02067203 2.22310190 4.95164977e-03
332 1 7.64656704 0.02136608 2.27378234 5.63292633e-03
333 1 7.75686228 0.02183895 2.32529811 5.95654755e-03
334 1 7.86708381 0.02248749 2.37703315 6.00432988e-03
335 1 7.97713893 0.02332073 2.42908176 6.08757506e-03
336 1 8.08698808 0.02401083 2.48150782 5.05700823e-03
337 1 8.19685974 0.02443473 2.53410621 6.83715280e-03
338 1 8.30650077 0.02530330 2.58693219 4.93632937e-03
339 1 8.41607511 0.02577165 2.64040707 5.62467055e-03
340 1 8.52536558 0.02624257 2.69384905 5.95386311e-03
341 1 8.63440071 0.02699759 2.74773688 6.00199927e-03
342 1 8.74361060 0.02767337 2.80197749 6.06987486e-03
343 1 8.85232734 0.02830266 2.85628390 5.01509653e-03
344 1 8.96139484 0.02911671 2.91092442 6.78511241e-03
345 1 9.07011757 0.02972021 2.96585654 4.92113473e-03
346 1 9.17867266 0.03034296 3.02127149 5.61645056e-03
347 1 9.28699672 0.03127917 3.07682433 5.95118153e-03
348 1 9.39538470 0.03189575 3.13251158 6.09206826e-03
349 1 9.50344642 0.03269193 3.18864030 6.09206826e-03
350 1 9.61163637 0.03336303 3.24477302 6.09206826e-03
351 1 9.71980808 0.03416487 3.30129755 6.50085567e-03
352 1 9.82782070 0.03488544 3.35789371 6.38496347e-03
353 1 9.93584473 0.03558675 3.41473286 5.77251663e-03
354 1 10.04354264 0.03628668 3.47170527 5.73476969e-03
355 1 10.15137290 0.03698025 3.52893520 5.94888879e-03
356 1 10.25900298 0.03749436 3.58630159 6.09206826e-03
357 1 10.36647635 0.03843404 3.64384681 6.09206826e-03
358 1 10.47391655 0.03911313 3.70169872 6.09206826e-03
359 1 10.58120774 0.03974800 3.75965487 6.09206826e-03
360 1 10.68824241 0.04061098 3.81787882 4.98457375e-03
361 1 10.79550668 0.04144295 3.87627330 6.69756871e-03
362 1 10.90265919 0.04228187 3.93482313 5.15375987e-03
363 1 11.00959850 0.04302085 3.99338146 4.95985007e-03
364 1 11.11655065 0.04377196 4.05210060 6.48212442e-03
365 1 11.22347655 0.04448719 4.11114171 5.14927068e-03
366 1 11.33027905 0.04535631 4.17017364 4.95341033e-03
367 1 11.43698894 0.04594325 4.22944207 6.46347279e-03
368 1 11.54363684 0.04692422 4.28870928 5.14043101e-03
369 1 11.65017862 0.04758344 4.34819343 4.91020010e-03
370 1 11.75686095 0.04844464 4.40779616 6.45556760e-03
371 1 11.86340317 0.04924892 4.46755078 4.90989307e-03
372 1 11.96985506 0.04999048 4.52740513 5.52395043e-03
373 1 12.07623983 0.05086142 4.58733275 5.87068470e-03
374 1 12.18251687 0.05167575 4.64737460 4.87920209e-03
375 1 12.28884610 0.05243965 4.70750045 6.41661913e-03
376 1 12.39508020 0.05327043 4.76774552 4.89988333e-03
377 1 12.50132799 0.05412856 4.82804795 5.51681014e-03
378 1 12.60750657 0.05495507 4.88848001 5.85936171e-03
379 1 12.71354876 0.05574031 4.94899741 4.85938456e-03
380 1 12.81963223 0.05659096 5.00953720 6.38254444e-03
381 1 12.92573320 0.05736989 5.07019096 4.88995824e-03
382 1 13.03173413 0.05820505 5.13096824 5.57476230e-03
383 1 13.13767353 0.05914379 5.19179710 5.93743790e-03
384 1 13.24358802 0.05987368 5.25266043 5.98766457e-03
385 1 13.34950113 0.06073245 5.31358618 5.96043235e-03
386 1 13.45535107 0.06161320 5.37463459 4.81637844e-03
387 1 13.56122131 0.06243957 5.43576868 6.34214196e-03
388 1 13.66707194 0.06331611 5.49687964 4.87620659e-03
389 1 13.77287023 0.06417839 5.55806109 5.56677439e-03
390 1 13.87865568 0.06499180 5.61928332 5.93477518e-03
391 1 13.98437522 0.06584101 5.68055714 5.98532808e-03
392 1 14.09009317 0.06673530 5.74192185 5.94249673e-03
393 1 14.19578136 0.06756039 5.80329486 4.79106117e-03
394 1 14.30145067 0.06840117 5.86473594 6.34873408e-03
395 1 14.40707936 0.06934171 5.92621455 5.10720957e-03
396 1 14.51271264 0.07017189 5.98773568 4.79385489e-03
397 1 14.61835403 0.07101561 6.04928064 6.33054845e-03
398 1 14.72397986 0.07188505 6.11088039 5.10009402e-03
399 1 14.82955601 0.07276892 6.17246703 4.78369059e-03
400 1 14.93516705 0.07367643 6.23410925 6.31203828e-03
401 1 15.04074420 0.07456945 6.29578021 5.09300092e-03
402 1 15.14629498 0.07547064 6.35746097 4.74903927e-03
403 1 15.25184612 0.07635716 6.41918506 6.32830758e-03
404 1 15.35740672 0.07725562 6.48092607 5.08343922e-03
405 1 15.46294761 0.07814395 6.54268423 4.32591159e-03
406 1 15.56848661 0.07902940 6.60443158 6.00104739e-03
407 1 15.67402147 0.07994498 6.66622168 5.21119202e-03
408 1 15.77954419 0.08084138 6.72800547 6.09206826e-03
409 1 15.88507308 0.08175178 6.78981694 6.05153388e-03
410 1 15.99059278 0.08266641 6.85162110 5.91774538e-03
411 1 16.09611684 0.08357213 6.91344290 6.22305381e-03
412 1 16.20163799 0.08448923 6.97527483 5.03791106e-03
413 1 16.30715990 0.08540986 7.03710391 4.72607940e-03
414 1 16.41268560 0.08631962 7.09892937 8.71836332e-03
415 1 16.51821194 0.08725072 7.16076621 5.95355142e-03
416 1 16.62373812 0.08817857 7.22260460 5.36960420e-03
417 1 16.72926296 0.08911732 7.28443457 6.03255871e-03
418 1 16.83480085 0.09004110 7.34625717 5.00245570e-03
419 1 16.94035619 0.09097286 7.40808472 4.70280803e-03
420 1 17.04590414 0.09189677 7.46989272 8.65685956e-03
421 1 17.15145711 0.09284300 7.53170265 5.94692135e-03
422 1 17.25700680 0.09379097 7.59351318 5.65886656e-03
423 1 17.36257615 0.09472648 7.65529646 5.98663784e-03
424 1 17.46816898 0.09566706 7.71707151 6.03862808e-03
425 1 17.57375913 0.09661726 7.77882930 6.08821513e-03
426 1 17.67934737 0.09756128 7.84057382 6.17296108e-03
427 1 17.78494508 0.09851112 7.90230256 6.04911048e-03
428 1 17.89055677 0.09944781 7.96403045 6.99423467e-03
429 1 17.99617494 0.10039250 8.02573350 6.49916941e-03
430 1 18.10179555 0.10135811 8.08742970 6.05139015e-03
431 1 18.20745093 0.10230918 8.14909492 6.07023001e-03
432 1 18.31309955 0.10328123 8.21076054 6.06423220e-03
433 1 18.41875998 0.10424585 8.27239781 6.03339671e-03
434 1 18.52442294 0.10522395 8.33402340 6.06123277e-03
435 1 18.63011778 0.10617544 8.39563263 6.05523286e-03
436 1 18.73581482 0.10715970 8.45721645 6.01539697e-03
437 1 18.84150733 0.10810563 8.51877813 6.05223237e-03
438 1 18.94721262 0.10909308 8.58033648 6.04623034e-03
439 1 19.05296490 0.11007357 8.64188447 5.99739088e-03
440 1 19.15869258 0.11105177 8.70337977 6.03386113e-03
441 1 19.26443929 0.11202428 8.76484373 6.06015229e-03
442 1 19.37022352 0.11300980 8.82630342 6.93292310e-03
443 1 19.47602576 0.11397440 8.88773986 6.60839364e-03
444 1 19.58182624 0.11496020 8.94914343 6.08325267e-03
445 1 19.68763351 0.11592603 9.01053769 5.98999100e-03
446 1 19.79344759 0.11690144 9.07188699 6.02220795e-03
447 1 19.89928213 0.11788300 9.13322327 5.94934321e-03
448 1 20.00513329 0.11888999 9.19453663 6.00521256e-03
449 1 20.11098400 0.11987742 9.25581689 5.96042100e-03
450 1 20.21687353 0.12084878 9.31709305 6.01327673e-03
451 1 20.32274417 0.12183039 9.37833965 6.06616825e-03
452 1 20.42864599 0.12282374 9.43956073 6.09206826e-03
453 1 20.53454511 0.12382916 9.50077134 6.22108889e-03
454 1 20.64045081 0.12482304 9.56195472 6.93510095e-03
455 1 20.74637917 0.12580774 9.62311005 6.55067958e-03
456 1 20.85233107 0.12680979 9.68425227 5.44215936e-03
457 1 20.95826846 0.12781829 9.74537839 5.52453627e-03
458 1 21.06422180 0.12879740 9.80647242 6.09206826e-03
459 1 21.17018914 0.12978739 9.86754375 5.52769247e-03
460 1 21.27615411 0.13078792 9.92860033 5.54504444e-03
461 1 21.38213767 0.13177693 9.98962133 6.09206826e-03
462 1 21.48814279 0.13278624 10.05064319 5.52433613e-03
463 1 21.59413345 0.13378098 10.11163703 5.54169116e-03
464 1 21.70014643 0.13475437 10.17261616 6.09959331e-03
465 1 21.80616865 0.13575864 10.23357053 5.37708140e-03
466 1 21.91218059 0.13676178 10.29452354 5.50601994e-03
467 1 22.01820306 0.13775508 10.35545655 6.09132348e-03
468 1 22.12424248 0.13875577 10.41637719 5.36406280e-03
469 1 22.23027785 0.13975978 10.47728324 5.50114066e-03
470 1 22.33632064 0.14075362 10.53818448 6.07613573e-03
471 1 22.44235276 0.14176527 10.59906804 5.86576563e-03
472 1 22.54839750 0.14276739 10.65994688 5.87763704e-03
473 1 22.65444590 0.14377237 10.72081576 5.79509293e-03
474 1 22.76047540 0.14477917 10.78167666 6.45795830e-03
475 1 22.86652101 0.14577839 10.84252686 6.36067877e-03
476 1 22.97255956 0.14678932 10.90337226 5.01672083e-03
477 1 0.12345198 1.20732778 -0.24457690 -5.06599779e-03
478 1 0.24714436 1.20629259 -0.24478617 -5.96099493e-03
479 1 0.37191510 1.20433303 -0.24250878 -6.06828787e-03
480 1 0.49675626 1.20495947 -0.23948627 -6.09081051e-03
481 1 0.62126416 1.20492437 -0.23447445 -6.09597885e-03
482 1 0.74571017 1.20528067 -0.22865662 -6.09677124e-03
483 1 0.87124856 1.20426777 -0.22078127 -6.09261604e-03
484 1 0.99585331 1.20515028 -0.21212082 -6.09210769e-03
485 1 1.12090410 1.20448707 -0.20069871 -6.09159289e-03
486 1 1.24475200 1.20476471 -0.18897345 -6.09258964e-03
487 1 1.36902083 1.20686021 -0.17697175 -6.11404233e-03
488 1 1.49265279 1.20729793 -0.16255403 -6.12924398e-03
489 1 1.61585941 1.20622085 -0.14737162 -6.13810471e-03
490 1 1.73932314 1.20662605 -0.13148256 -6.10740278e-03
491 1 1.86298153 1.20659362 -0.11377190 -6.11299929e-03
492 1 1.98624271 1.20719358 -0.09374211 -6.11651709e-03
493 1 2.10918952 1.20693917 -0.07488813 -6.10892752e-03
494 1 2.23206082 1.20881170 -0.05379674 -6.08383817e-03
495 1 2.35489359 1.20978688 -0.03130396 -6.07811671e-03
496 1 2.47668072 1.20968325 -0.00742468 -6.12167487e-03
497 1 2.59828862 1.20930836 0.01655858 -6.12891596e-03
498 1 2.72020139 1.21051389 0.04136589 -6.13439434e-03
499 1 2.84206492 1.21154800 0.06818701 -6.11877956e-03
500 1 2.96335598 1.21118243 0.09553827 -6.09486572e-03
501 1 3.08427704 1.21232367 0.12366519 -6.09206826e-03
502 1 3.20564545 1.21268577 0.15293826 -6.09206855e-03
503 1 3.32590238 1.21305993 0.18320639 -6.09206932e-03
504 1 3.44537747 1.21373777 0.21404400 -6.11378764e-03
505 1 3.56638593 1.21541787 0.24583761 -6.10132488e-03
506 1 3.68537709 1.21615436 0.27842255 -6.14015253e-03
507 1 3.80464981 1.21617578 0.31129133 -6.18862768e-03
508 1 3.92323727 1.21730947 0.34586188 -6.20494803e-03
509 1 4.04210644 1.21778369 0.38003006 -6.16689241e-03
510 1 4.16035299 1.21827119 0.41557779 -6.13536340e-03
511 1 4.27880324 1.21867606 0.45132957 -6.09206826e-03
512 1 4.39682540 1.21914854 0.48778538 -6.09528258e-03
513 1 4.51506241 1.22023581 0.52475820 -6.10197805e-03
514 1 4.63322002 1.22051279 0.56261629 -6.09705471e-03
515 1 4.75051154 1.22140206 0.60122785 -6.06436498e-03
516 1 4.86805500 1.22148360 0.64099990 -6.12133674e-03
517 1 4.98474707 1.22247722 0.68065281 -6.20974613e-03
518 1 5.10152489 1.22346194 0.72115383 -6.24802334e-03
519 1 5.21775088 1.22424527 0.76237530 -6.19819175e-03
520 1 5.33427460 1.22416346 0.80426085 -6.15088270e-03
521 1 5.45059335 1.22495884 0.84676714 -6.13301438e-03
522 1 5.56624666 1.22627526 0.88976811 -6.10131989e-03
523 1 5.68211577 1.22681364 0.93348291 -6.05757291e-03
524 1 5.79740528 1.22787664 0.97759405 -6.04491082e-03
525 1 5.91207459 1.22830894 1.02258379 -6.05437557e-03
526 1 6.02720715 1.22950895 1.06773882 -6.06489385e-03
527 1 6.14162940 1.23041985 1.11333456 -6.09206826e-03
528 1 6.25591830 1.23135705 1.15965888 -6.09206826e-03
529 1 6.37008122 1.23154394 1.20651430 -6.09979510e-03
530 1 6.48381573 1.23233995 1.25377338 -6.12512692e-03
531 1 6.59761214 1.23343181 1.30137336 -6.16578501e-03
532 1 6.71105799 1.23376084 1.34983931 -6.26929389e-03
533 1 6.82402627 1.23453712 1.39814836 -6.28695529e-03
534 1 6.93753226 1.23579344 1.44678111 -6.28583704e-03
535 1 7.05038437 1.23625252 1.49607394 -6.23881179e-03
536 1 7.16330507 1.23706366 1.54602466 -6.30184580e-03
537 1 7.27569519 1.23792568 1.59619423 -6.28022129e-03
538 1 7.38803910 1.23879362 1.64657661 -6.24103982e-03
539 1 7.50035715 1.23967963 1.69737249 -6.33470904e-03
540 1 7.61243420 1.23993829 1.74897258 -6.28101331e-03