ITEM: TIMESTEP
0
ITEM: NUMBER OF ATOMS
10710
ITEM: BOX BOUNDS ff ff ff
-2.0 26.52327037791592
-2.0044344765629276 3.2275723265486036
-2.2455058240859884 10.016606665307066
ITEM: ATOMS id type x y z q
1 2 0.00000000 0.00000000 0.24527477 3.35542180e-03
2 2 0.00000000 0.00000000 -0.24472523 -3.35542180e-03
3 2 0.00000000 1.21000000 0.24527477 3.41686920e-03
4 2 0.00000000 1.21000000 -0.24472523 -3.41686920e-03
5 1 24.32179809 0.00443916 7.98994588 3.37776783e-03
6 1 24.52327038 0.01620790 7.54337908 -3.37776783e-03
7 1 24.31041911 1.21405779 8.01660667 3.41686920e-03
8 1 24.51188771 1.22577269 7.57004081 -3.41686920e-03
9 2 0.00000000 0.00000000 -0.12222523 0.00000000e+00
10 2 0.00000000 0.00000000 0.00027477 0.00000000e+00
11 2 0.00000000 0.00000000 0.12277477 0.00000000e+00
12 2 0.00000000 0.12100000 0.24527477 5.18139194e-03
13 2 0.00000000 0.24200000 0.24527477 5.50362000e-03
14 2 0.00000000 0.36300000 0.24527477 5.01501884e-03
15 2 0.00000000 0.48400000 0.24527477 5.50904170e-03
16 2 0.00000000 0.60500000 0.24527477 6.02408537e-03
17 2 0.00000000 0.72600000 0.24527477 6.86123120e-03
18 2 0.00000000 0.84700000 0.24527477 6.83241897e-03
19 2 0.00000000 0.96800000 0.24527477 5.84994208e-03
20 2 0.00000000 1.08900000 0.24527477 4.96878236e-03
21 2 0.00000000 1.21000000 -0.12222523 0.00000000e+00
22 2 0.00000000 1.21000000 0.00027477 0.00000000e+00
23 2 0.00000000 1.21000000 0.12277477 0.00000000e+00
24 2 0.00000000 0.12100000 -0.24472523 -5.18139194e-03
25 2 0.00000000 0.24200000 -0.24472523 -5.50362000e-03
26 2 0.00000000 0.36300000 -0.24472523 -5.01501884e-03
27 2 0.00000000 0.48400000 -0.24472523 -5.50904170e-03
28 2 0.00000000 0.60500000 -0.24472523 -6.02408537e-03
29 2 0.00000000 0.72600000 -0.24472523 -6.86123120e-03
30 2 0.00000000 0.84700000 -0.24472523 -6.83241897e-03
31 2 0.00000000 0.96800000 -0.24472523 -5.84994208e-03
32 2 0.00000000 1.08900000 -0.24472523 -4.96878236e-03
33 1 24.47289809 0.01326277 7.65501829 0.00000000e+00
34 1 24.42253205 0.01032140 7.76665823 0.00000000e+00
35 1 24.37216638 0.00738145 7.87830109 0.00000000e+00
36 1 24.32066103 0.12539771 7.99261942 5.05002864e-03
37 1 24.31951773 0.24636062 7.99529043 5.64089052e-03
38 1 24.31837737 0.36732166 7.99796231 5.44128437e-03
39 1 24.31724374 0.48828515 8.00062953 6.40224548e-03
40 1 24.31610388 0.60924883 8.00330118 6.88148315e-03
41 1 24.31496626 0.73021104 8.00596359 6.11583422e-03
42 1 24.31382891 0.85117406 8.00862568 5.69198232e-03
43 1 24.31269035 0.97213611 8.01128900 6.01735171e-03
44 1 24.31155474 1.09309910 8.01394945 5.43527194e-03
45 1 24.46151835 1.22284561 7.68167876 0.00000000e+00
46 1 24.41115277 1.21991554 7.79332014 0.00000000e+00
47 1 24.36078869 1.21698582 7.90496239 0.00000000e+00
48 1 24.52212505 0.13716253 7.54605079 -5.05002864e-03
49 1 24.52098767 0.25811940 7.54872661 -5.64089052e-03
50 1 24.51984477 0.37907741 7.55139492 -5.44128437e-03
51 1 24.51870740 0.50003312 7.55406207 -6.40224548e-03
52 1 24.51757112 0.62098885 7.55672960 -6.88148315e-03
53 1 24.51643567 0.74194522 7.55939801 -6.11583422e-03
54 1 24.51529640 0.86290182 7.56205753 -5.69198232e-03
55 1 24.51415944 0.98385988 7.56471933 -6.01735171e-03
56 1 24.51302085 1.10481672 7.56737959 -5.43527194e-03
57 1 0.12314987 0.00182270 -0.24550582 -4.80862070e-03
58 1 0.24654960 0.00324105 -0.24506843 -5.62714142e-03
59 1 0.36998673 0.00345820 -0.24426194 -6.00619986e-03
60 1 0.49386949 0.00341379 -0.24284468 -6.09052560e-03
61 1 0.61743082 0.00350005 -0.24062912 -6.09206826e-03
62 1 0.74109208 0.00420475 -0.23773926 -5.94781856e-03
63 1 0.86463361 0.00493187 -0.23433950 -5.82025544e-03
64 1 0.98808850 0.00447932 -0.22891273 -5.95871849e-03
65 1 1.11229024 0.00463041 -0.22375840 -6.09232315e-03
66 1 1.23602924 0.00435832 -0.21807567 -6.09205550e-03
67 1 1.35943615 0.00461090 -0.21127550 -6.08598370e-03
68 1 1.48295281 0.00522695 -0.20302066 -6.07933546e-03
69 1 1.60627919 0.00536779 -0.19534907 -6.08488133e-03
70 1 1.72956795 0.00532957 -0.18641789 -6.08161608e-03
71 1 1.85267801 0.00537222 -0.17687530 -6.08881076e-03
72 1 1.97647251 0.00524219 -0.16644416 -6.09207793e-03
73 1 2.09983252 0.00543096 -0.15564226 -6.09206431e-03
74 1 2.22309149 0.00599979 -0.14360107 -6.09206920e-03
75 1 2.34622994 0.00597346 -0.13131566 -6.09206749e-03
76 1 2.46902560 0.00581644 -0.11840427 -6.09206826e-03
77 1 2.59165352 0.00586664 -0.10496742 -6.09206901e-03
78 1 2.71455897 0.00533358 -0.09104960 -6.08547783e-03
79 1 2.83716532 0.00562317 -0.07648673 -6.07797420e-03
80 1 2.95970202 0.00638191 -0.06128741 -6.08460882e-03
81 1 3.08220085 0.00607595 -0.04557943 -6.08123045e-03
82 1 3.20445971 0.00630611 -0.02908656 -6.08867780e-03
83 1 3.32655437 0.00649467 -0.01204035 -6.09206866e-03
84 1 3.44886906 0.00663246 0.00565188 -6.09206839e-03
85 1 3.57081965 0.00636360 0.02350265 -6.09206833e-03
86 1 3.69291379 0.00614474 0.04218692 -6.09206826e-03
87 1 3.81507339 0.00672263 0.06132210 -6.09206824e-03
88 1 3.93684749 0.00694348 0.08071606 -6.09206825e-03
89 1 4.05866360 0.00658220 0.10046336 -6.10477040e-03
90 1 4.18035845 0.00708124 0.12082307 -6.10144793e-03
91 1 4.30162467 0.00714223 0.14180085 -6.09206826e-03
92 1 4.42331974 0.00709914 0.16293963 -6.08473760e-03
93 1 4.54440749 0.00715060 0.18464347 -6.07718969e-03
94 1 4.66562900 0.00745534 0.20700427 -6.08430762e-03
95 1 4.78670633 0.00776663 0.22956601 -6.08084602e-03
96 1 4.90789758 0.00773385 0.25239312 -6.08857506e-03
97 1 5.02904897 0.00826892 0.27597928 -6.09439460e-03
98 1 5.15003737 0.00802865 0.29999402 -6.09360296e-03
99 1 5.27073502 0.00824356 0.32477895 -6.10212083e-03
100 1 5.39158448 0.00817675 0.34958681 -6.09455787e-03
101 1 5.51200597 0.00872339 0.37475601 -6.08457013e-03
102 1 5.63239586 0.00872435 0.40049226 -6.08334006e-03
103 1 5.75316282 0.00872833 0.42693948 -6.09025173e-03
104 1 5.87322243 0.00885699 0.45348562 -6.09206826e-03
105 1 5.99338984 0.00897022 0.48035661 -6.09206826e-03
106 1 6.11343775 0.00943502 0.50774384 -6.08838437e-03
107 1 6.23325029 0.00956156 0.53544164 -6.09329454e-03
108 1 6.35342295 0.00933763 0.56345864 -6.09400483e-03
109 1 6.47325850 0.00968540 0.59196241 -6.08872179e-03
110 1 6.59312736 0.01003259 0.62114125 -6.08812243e-03
111 1 6.71247811 0.01019194 0.65047680 -6.09206826e-03
112 1 6.83208297 0.01027424 0.67993192 -6.09206826e-03
113 1 6.95131209 0.01036140 0.70973188 -6.09206826e-03
114 1 7.07035568 0.01064529 0.74027393 -6.06302327e-03
115 1 7.18957111 0.01039727 0.77100044 -6.06302327e-03
116 1 7.30876468 0.01056552 0.80221616 -5.90236529e-03
117 1 7.42765505 0.01075730 0.83376187 -5.81608564e-03
118 1 7.54644650 0.01091538 0.86546426 -6.10035823e-03
119 1 7.66527478 0.01101141 0.89756509 -5.08741334e-03
120 1 7.78382205 0.01109259 0.92994109 -6.87719096e-03
121 1 7.90220098 0.01134086 0.96259205 -5.18694999e-03
122 1 8.02094737 0.01119966 0.99541953 -5.00655937e-03
123 1 8.13917570 0.01142311 1.02872663 -7.17602109e-03
124 1 8.25745646 0.01179402 1.06227497 -5.64123658e-03
125 1 8.37591723 0.01198361 1.09614928 -5.91249038e-03
126 1 8.49387291 0.01196683 1.13021586 -5.77202514e-03
127 1 8.61181569 0.01211891 1.16454946 -5.95689302e-03
128 1 8.72991812 0.01238813 1.19918888 -6.09206826e-03
129 1 8.84779232 0.01223864 1.23421568 -6.09206826e-03
130 1 8.96549485 0.01237420 1.26939544 -6.09206826e-03
131 1 9.08312128 0.01259312 1.30477839 -6.00199927e-03
132 1 9.20086186 0.01310001 1.34047143 -6.06987486e-03
133 1 9.31844618 0.01325392 1.37650278 -5.02835518e-03
134 1 9.43583814 0.01332101 1.41276285 -6.79157831e-03
135 1 9.55296662 0.01368474 1.44947127 -4.92113473e-03
136 1 9.67033008 0.01359038 1.48627921 -5.56259368e-03
137 1 9.78759093 0.01353576 1.52350096 -5.94323360e-03
138 1 9.90469282 0.01388902 1.56113098 -5.00637084e-03
139 1 10.02148234 0.01386171 1.59863826 -6.75640181e-03
140 1 10.13826505 0.01375575 1.63650201 -4.91035923e-03
141 1 10.25492031 0.01384941 1.67467406 -5.75765677e-03
142 1 10.37165473 0.01399936 1.71289579 -6.37465021e-03
143 1 10.48829981 0.01430611 1.75131888 -6.33172667e-03
144 1 10.60477339 0.01449142 1.78998505 -5.77695765e-03
145 1 10.72135143 0.01482536 1.82887074 -5.75602868e-03
146 1 10.83775064 0.01484576 1.86788712 -5.94989338e-03
147 1 10.95388717 0.01486832 1.90738867 -6.09206826e-03
148 1 11.07013141 0.01521584 1.94706223 -6.09206826e-03
149 1 11.18627350 0.01515642 1.98697325 -6.49862787e-03
150 1 11.30236331 0.01537836 2.02718840 -6.47806478e-03
151 1 11.41836605 0.01528561 2.06740924 -5.98398651e-03
152 1 11.53434090 0.01553614 2.10801408 -5.97118729e-03
153 1 11.65011757 0.01548225 2.14866045 -6.32827249e-03
154 1 11.76588194 0.01560892 2.18943194 -6.38296841e-03
155 1 11.88161282 0.01597691 2.23042612 -6.09206826e-03
156 1 11.99718486 0.01585953 2.27177011 -5.92176613e-03
157 1 12.11265267 0.01602353 2.31315431 -5.84196899e-03
158 1 12.22793794 0.01608136 2.35469439 -5.89327746e-03
159 1 12.34337810 0.01625123 2.39663557 -4.96011300e-03
160 1 12.45864333 0.01637382 2.43855916 -6.65158567e-03
161 1 12.57381734 0.01646014 2.48077637 -4.90989307e-03
162 1 12.68913621 0.01653319 2.52305370 -5.52395043e-03
163 1 12.80423014 0.01677690 2.56558934 -5.87068470e-03
164 1 12.91924673 0.01685803 2.60822517 -4.88602194e-03
165 1 13.03414938 0.01700439 2.65105255 -6.40279006e-03
166 1 13.14903413 0.01705878 2.69398747 -5.12407601e-03
167 1 13.26383069 0.01708907 2.73714918 -4.88216806e-03
168 1 13.37858859 0.01715270 2.78039830 -6.38017819e-03
169 1 13.49325353 0.01740982 2.82384163 -5.11373203e-03
170 1 13.60785757 0.01741686 2.86745264 -4.85398664e-03
171 1 13.72246003 0.01747376 2.91121009 -6.35577596e-03
172 1 13.83685765 0.01767774 2.95515912 -5.10698016e-03
173 1 13.95136768 0.01760727 2.99915972 -4.85870271e-03
174 1 14.06567992 0.01770482 3.04347505 -6.37702085e-03
175 1 14.18001918 0.01765043 3.08773399 -5.10092274e-03
176 1 14.29426567 0.01780336 3.13218250 -4.84968636e-03
177 1 14.40840729 0.01793749 3.17679388 -6.37599125e-03
178 1 14.52260640 0.01801542 3.22152905 -4.87710407e-03
179 1 14.63674023 0.01810761 3.26645347 -5.56677439e-03
180 1 14.75081930 0.01804579 3.31143303 -5.93477518e-03
181 1 14.86480217 0.01822406 3.35660620 -6.09206826e-03
182 1 14.97875296 0.01823047 3.40185995 -6.09206826e-03
183 1 15.09261216 0.01835909 3.44724032 -5.98211588e-03
184 1 15.20637494 0.01839389 3.49275738 -5.88223740e-03
185 1 15.32012769 0.01848847 3.53848045 -5.93479953e-03
186 1 15.43385113 0.01834016 3.58431217 -4.77734034e-03
187 1 15.54743427 0.01842222 3.63020138 -6.31776323e-03
188 1 15.66102981 0.01855351 3.67618533 -4.85845554e-03
189 1 15.77461392 0.01864028 3.72237623 -5.48045656e-03
190 1 15.88809977 0.01863873 3.76863453 -5.74774533e-03
191 1 16.00145687 0.01861415 3.81501733 -5.91938606e-03
192 1 16.11486095 0.01859744 3.86161567 -4.72601755e-03
193 1 16.22821142 0.01868689 3.90825706 -6.44309587e-03
194 1 16.34142660 0.01871511 3.95493018 -5.21392668e-03
195 1 16.45467499 0.01872817 4.00165603 -4.32492230e-03
196 1 16.56789488 0.01875406 4.04855529 -6.11554878e-03
197 1 16.68099298 0.01877450 4.09558872 -5.20526136e-03
198 1 16.79417766 0.01882084 4.14273405 -4.31230685e-03
199 1 16.90719059 0.01884625 4.18986487 -6.11716232e-03
200 1 17.02013377 0.01896164 4.23720651 -5.69773107e-03
201 1 17.13312528 0.01886980 4.28459644 -5.99314584e-03
202 1 17.24607818 0.01894144 4.33211905 -4.76350900e-03
203 1 17.35890607 0.01889826 4.37978572 -5.21120302e-03
204 1 17.47177338 0.01892089 4.42743936 -6.01204532e-03
205 1 17.58451979 0.01890304 4.47517523 -5.73233737e-03
206 1 17.69729971 0.01883620 4.52304673 -5.81943467e-03
207 1 17.80994978 0.01888127 4.57098208 -6.32655047e-03
208 1 17.92268655 0.01885462 4.61904725 -5.03614005e-03
209 1 18.03531551 0.01884778 4.66707774 -4.70280803e-03
210 1 18.14784824 0.01883769 4.71528680 -8.65683464e-03
211 1 18.26043064 0.01888592 4.76352771 -5.94692004e-03
212 1 18.37287765 0.01885895 4.81190852 -5.65885778e-03
213 1 18.48542943 0.01883910 4.86029452 -5.99277035e-03
214 1 18.59784212 0.01876606 4.90880732 -6.04066598e-03
215 1 18.71021434 0.01871184 4.95733989 -6.09206826e-03
216 1 18.82263210 0.01880888 5.00602176 -6.09206826e-03
217 1 18.93492788 0.01879511 5.05468823 -6.09206826e-03
218 1 19.04726801 0.01870119 5.10342742 -5.94140402e-03
219 1 19.15953503 0.01864726 5.15223417 -6.09135703e-03
220 1 19.27177134 0.01864719 5.20110901 -6.09135703e-03
221 1 19.38402428 0.01862496 5.25005395 -6.09206826e-03
222 1 19.49621009 0.01859087 5.29904307 -6.22362401e-03
223 1 19.60832300 0.01862055 5.34809320 -6.30618064e-03
224 1 19.72047187 0.01855049 5.39719956 -6.16079228e-03
225 1 19.83258188 0.01848590 5.44633937 -6.90076158e-03
226 1 19.94464097 0.01846285 5.49553431 -7.19612184e-03
227 1 20.05671458 0.01843510 5.54478655 -6.17999120e-03
228 1 20.16874392 0.01843623 5.59410003 -5.85545161e-03
229 1 20.28073851 0.01838852 5.64345253 -6.04373412e-03
230 1 20.39272544 0.01838621 5.69289622 -6.05837687e-03
231 1 20.50469251 0.01831506 5.74236696 -6.22625934e-03
232 1 20.61659816 0.01824920 5.79186500 -6.96326852e-03
233 1 20.72852628 0.01820827 5.84140442 -6.60839364e-03
234 1 20.84037309 0.01818501 5.89101961 -6.08325267e-03
235 1 20.95220203 0.01813291 5.94069046 -5.98999100e-03
236 1 21.06404208 0.01810178 5.99038007 -6.02220795e-03
237 1 21.17585067 0.01801891 6.04011610 -5.94934321e-03
238 1 21.28763559 0.01795930 6.08988329 -6.23085673e-03
239 1 21.39938172 0.01791533 6.13966733 -5.91383044e-03
240 1 21.51115570 0.01788455 6.18950708 -5.82022831e-03
241 1 21.62288022 0.01781340 6.23935774 -6.06616825e-03
242 1 21.73460367 0.01772311 6.28928221 -6.09206826e-03
243 1 21.84627579 0.01768138 6.33921070 -6.22108889e-03
244 1 21.95795639 0.01766979 6.38915583 -6.93510095e-03
245 1 22.06960349 0.01761550 6.43915025 -6.55067958e-03
246 1 22.18127620 0.01754117 6.48915397 -5.44215936e-03
247 1 22.29288707 0.01749678 6.53918134 -5.52453627e-03
248 1 22.40451709 0.01746158 6.58925061 -6.11677386e-03
249 1 22.51610413 0.01739497 6.63932033 -5.40422112e-03
250 1 22.62770308 0.01731185 6.68943508 -5.51625079e-03
251 1 22.73928523 0.01724298 6.73957556 -6.10817079e-03
252 1 22.85084655 0.01717595 6.78972884 -5.39058303e-03
253 1 22.96239435 0.01711793 6.83990095 -5.51111698e-03
254 1 23.07394727 0.01703940 6.89008499 -6.09959331e-03
255 1 23.18547698 0.01697286 6.94027708 -5.37708140e-03
256 1 23.29699872 0.01693423 6.99049491 -5.50601994e-03
257 1 23.40851462 0.01686223 7.04070928 -6.09132348e-03
258 1 23.52001884 0.01678667 7.09094522 -5.36406280e-03
259 1 23.63151200 0.01672722 7.14119877 -5.50114066e-03
260 1 23.74299388 0.01666061 7.19145277 -6.07613573e-03
261 1 23.85447701 0.01659604 7.24171761 -5.86576563e-03
262 1 23.96595544 0.01652682 7.29198358 -5.87763703e-03
263 1 24.07743254 0.01646438 7.34225713 -5.79509293e-03
264 1 24.18889776 0.01640064 7.39253381 -6.45795830e-03
265 1 24.30036125 0.01633186 7.44281498 -6.36067877e-03
266 1 24.41181799 0.01626667 7.49309545 -5.01672083e-03
267 1 0.12159671 -0.00143707 0.24437056 4.80862070e-03
268 1 0.24302823 -0.00274653 0.24441526 5.62714142e-03
269 1 0.36439181 -0.00279848 0.24494662 6.00619986e-03
270 1 0.48559972 -0.00299303 0.24701988 6.09052560e-03
271 1 0.60612306 -0.00387266 0.24924730 6.09206826e-03
272 1 0.72735845 -0.00429998 0.25192609 5.94781856e-03
273 1 0.84845992 -0.00443448 0.25592144 5.82025544e-03
274 1 0.96894284 -0.00366497 0.26006585 5.95871849e-03
275 1 1.08949239 -0.00359309 0.26538022 6.09232315e-03
276 1 1.21038064 -0.00375165 0.27176062 6.09205550e-03
277 1 1.33113979 -0.00336186 0.27802449 6.08598370e-03
278 1 1.45214349 -0.00368350 0.28497797 6.07933546e-03
279 1 1.57314017 -0.00385485 0.29318693 6.08488133e-03
280 1 1.69333972 -0.00379544 0.30172125 6.08161608e-03
281 1 1.81410699 -0.00410154 0.31130359 6.08881076e-03
282 1 1.93504313 -0.00429926 0.32147273 6.09207793e-03
283 1 2.05478855 -0.00397143 0.33186087 6.09206431e-03
284 1 2.17568133 -0.00330970 0.34314011 6.09206920e-03
285 1 2.29621614 -0.00345675 0.35549067 6.09206749e-03
286 1 2.41683727 -0.00334643 0.36838843 6.09206826e-03
287 1 2.53738344 -0.00313797 0.38135232 6.09206901e-03
288 1 2.65803247 -0.00335773 0.39563493 6.08547783e-03
289 1 2.77817316 -0.00317596 0.40974398 6.07797420e-03
290 1 2.89838859 -0.00293602 0.42478607 6.08460882e-03
291 1 3.01877132 -0.00248895 0.44022464 6.08123045e-03
292 1 3.13911260 -0.00232516 0.45662993 6.08867780e-03
293 1 3.25890409 -0.00233418 0.47304939 6.09206866e-03
294 1 3.37897292 -0.00263626 0.49009718 6.09206839e-03
295 1 3.49894616 -0.00215263 0.50792803 6.09206833e-03
296 1 3.61894056 -0.00215403 0.52623497 6.09206826e-03
297 1 3.73909619 -0.00217227 0.54502505 6.09206824e-03
298 1 3.85872238 -0.00226931 0.56408696 6.09206825e-03
299 1 3.97847579 -0.00212173 0.58385369 6.10477040e-03
300 1 4.09790553 -0.00175985 0.60382887 6.10144793e-03
301 1 4.21784494 -0.00160921 0.62439728 6.09206826e-03
302 1 4.33760134 -0.00147276 0.64539307 6.08473760e-03
303 1 4.45730047 -0.00172555 0.66641562 6.07718969e-03
304 1 4.57696236 -0.00205222 0.68820578 6.08430762e-03
305 1 4.69625569 -0.00121048 0.71066813 6.08084602e-03
306 1 4.81548282 -0.00124368 0.73339823 6.08857506e-03
307 1 4.93464331 -0.00140662 0.75672814 6.09439460e-03
308 1 5.05380144 -0.00148476 0.78048290 6.09360296e-03
309 1 5.17277781 -0.00083207 0.80438955 6.10212083e-03
310 1 5.29150564 -0.00092183 0.82890112 6.09455787e-03
311 1 5.41050168 -0.00084557 0.85389763 6.08457013e-03
312 1 5.52942749 -0.00061530 0.87927886 6.08334006e-03
313 1 5.64807558 -0.00050809 0.90494033 6.09025173e-03
314 1 5.76679875 -0.00062830 0.93111694 6.09206826e-03
315 1 5.88569023 -0.00064494 0.95782605 6.09206826e-03
316 1 6.00415323 -0.00043956 0.98474870 6.08838437e-03
317 1 6.12242099 -0.00006084 1.01238241 6.09329454e-03
318 1 6.24049253 -0.00056201 1.04024550 6.09400483e-03
319 1 6.35891837 -0.00044224 1.06835434 6.08872179e-03
320 1 6.47729256 -0.00026993 1.09680131 6.08812243e-03
321 1 6.59527843 0.00005833 1.12540523 6.09206826e-03
322 1 6.71331373 0.00009557 1.15483633 6.09206826e-03
323 1 6.83131238 0.00046422 1.18473600 6.09206826e-03
324 1 6.94900904 0.00047935 1.21476580 6.06302327e-03
325 1 7.06669193 0.00074652 1.24518856 6.06302327e-03
326 1 7.18430693 0.00086551 1.27587604 5.90236529e-03
327 1 7.30202912 0.00109380 1.30707236 5.81608564e-03
328 1 7.41968844 0.00144505 1.33855644 6.10035823e-03
329 1 7.53700895 0.00129467 1.37034060 5.08741347e-03
330 1 7.65477491 0.00134177 1.40220546 6.88423117e-03
331 1 7.77199327 0.00161766 1.43477643 4.95164977e-03
332 1 7.88901294 0.00175769 1.46710864 5.63292633e-03
333 1 8.00622641 0.00170673 1.50011447 5.95654755e-03
334 1 8.12341274 0.00180808 1.53330628 6.00432988e-03
335 1 8.24048646 0.00205308 1.56676807 6.08757506e-03
336 1 8.35744249 0.00218479 1.60059708 5.05700823e-03
337 1 8.47442957 0.00207068 1.63457172 6.83715280e-03
338 1 8.59124982 0.00233942 1.66876398 4.93632937e-03
339 1 8.70810998 0.00224819 1.70352959 5.62467055e-03
340 1 8.82470252 0.00215862 1.73831408 5.95386311e-03
341 1 8.94112175 0.00231751 1.77350931 6.00199927e-03
342 1 9.05775358 0.00240401 1.80900860 6.06987486e-03
343 1 9.17392182 0.00244123 1.84465315 5.01509653e-03
344 1 9.29047865 0.00265896 1.88053973 6.78511241e-03
345 1 9.40673521 0.00266082 1.91675294 4.92113473e-03
346 1 9.52292061 0.00267606 1.95344945 5.61645056e-03
347 1 9.63890056 0.00299454 1.99030785 5.95118153e-03
348 1 9.75495000 0.00300582 2.02729750 6.09206826e-03
349 1 9.87074561 0.00318185 2.06474992 6.09206826e-03
350 1 9.98666692 0.00323417 2.10221177 6.09206826e-03
351 1 10.10263153 0.00341911 2.14005859 6.50085567e-03
352 1 10.21845259 0.00351293 2.17800228 6.38496347e-03
353 1 10.33431925 0.00357821 2.21618819 5.77251663e-03
354 1 10.44984633 0.00362593 2.25457691 5.73476969e-03
355 1 10.56555731 0.00366981 2.29322392 5.94888879e-03
356 1 10.68108140 0.00350405 2.33205408 6.09206826e-03
357 1 10.79645332 0.00380218 2.37110690 6.09206826e-03
358 1 10.91183891 0.00381864 2.41049802 6.09206826e-03
359 1 11.02707280 0.00376913 2.45003053 6.09206826e-03
360 1 11.14205164 0.00398778 2.48991903 4.98457375e-03
361 1 11.25732236 0.00417239 2.52997339 6.69756871e-03
362 1 11.37249333 0.00435529 2.57022349 5.15375987e-03
363 1 11.48739423 0.00440821 2.61052888 4.95985007e-03
364 1 11.60233728 0.00447037 2.65102652 6.48212442e-03
365 1 11.71732336 0.00446475 2.69193217 5.14927068e-03
366 1 11.83213726 0.00467444 2.73285100 4.95341033e-03
367 1 11.94685941 0.00449193 2.77409917 6.46347279e-03
368 1 12.06149734 0.00484230 2.81535237 5.14043101e-03
369 1 12.17602981 0.00474542 2.85692677 4.91020010e-03
370 1 12.29078068 0.00492805 2.89863579 6.45556760e-03
371 1 12.40537306 0.00500850 2.94057454 4.90989307e-03
372 1 12.51984700 0.00500123 2.98268376 5.52395043e-03
373 1 12.63424134 0.00518406 3.02492095 5.87068470e-03
374 1 12.74847952 0.00528084 3.06736604 4.87920209e-03
375 1 12.86280930 0.00528566 3.10992527 6.41661913e-03
376 1 12.97702331 0.00538007 3.15267329 4.89988333e-03
377 1 13.09126137 0.00553496 3.19551307 5.51681014e-03
378 1 13.20541582 0.00562712 3.23858729 5.85936171e-03
379 1 13.31935594 0.00563011 3.28184925 4.85938456e-03
380 1 13.43334891 0.00574799 3.32512931 6.38254444e-03
381 1 13.54741725 0.00569507 3.36861059 4.88995824e-03
382 1 13.66132909 0.00576810 3.41235615 5.57476230e-03
383 1 13.77513735 0.00603121 3.45620854 5.93743790e-03
384 1 13.88888791 0.00584950 3.50013598 5.98766457e-03
385 1 14.00265229 0.00594000 3.54418147 5.96043235e-03
386 1 14.11631119 0.00609983 3.58851619 4.81637844e-03
387 1 14.23001627 0.00609448 3.63302717 6.34214196e-03
388 1 14.34367611 0.00620316 3.67748595 4.87620659e-03
389 1 14.45723047 0.00627437 3.72211556 5.56677439e-03
390 1 14.57075928 0.00621955 3.76686295 5.93477518e-03
391 1 14.68414050 0.00626098 3.81179142 5.98532808e-03
392 1 14.79754259 0.00638344 3.85688833 5.94249673e-03
393 1 14.91084972 0.00633246 3.90205574 4.79106117e-03
394 1 15.02413812 0.00630442 3.94743205 6.34873408e-03
395 1 15.13730140 0.00656192 3.99290047 5.10720957e-03
396 1 15.25045210 0.00644604 4.03852936 4.79385489e-03
397 1 15.36364027 0.00640548 4.08420968 6.33054845e-03
398 1 15.47680751 0.00637171 4.13012840 5.10009402e-03
399 1 15.58976975 0.00642533 4.17600404 4.78369059e-03
400 1 15.70289554 0.00656225 4.22209511 6.31203828e-03
401 1 15.81588909 0.00656332 4.26827617 5.09300092e-03
402 1 15.92872420 0.00662976 4.31454931 4.74903927e-03
403 1 16.04158088 0.00664073 4.36105836 6.32830758e-03
404 1 16.15454246 0.00668903 4.40756757 5.08343922e-03
405 1 16.26735205 0.00668557 4.45429376 4.32591159e-03
406 1 16.38009875 0.00660128 4.50099126 6.00104739e-03
407 1 16.49286021 0.00674509 4.54787450 5.21119202e-03
408 1 16.60544624 0.00665005 4.59474341 6.09206826e-03
409 1 16.71816141 0.00663070 4.64179376 6.05153388e-03
410 1 16.83072337 0.00670282 4.68890441 5.91774538e-03
411 1 16.94335732 0.00667130 4.73613203 6.22305381e-03
412 1 17.05590210 0.00673168 4.78353839 5.03791106e-03
413 1 17.16837577 0.00669815 4.83100035 4.72607940e-03
414 1 17.28089492 0.00674962 4.87853535 8.71836332e-03
415 1 17.39333558 0.00668163 4.92616498 5.95355142e-03
416 1 17.50574600 0.00673312 4.97385453 5.36960420e-03
417 1 17.61812071 0.00659820 5.02164427 6.03255871e-03
418 1 17.73044838 0.00662468 5.06948740 5.00245570e-03
419 1 17.84268607 0.00658764 5.11741295 4.70280803e-03
420 1 17.95495510 0.00667184 5.16549880 8.65685956e-03
421 1 18.06717903 0.00664400 5.21365379 5.94692135e-03
422 1 18.17943256 0.00659361 5.26183546 5.65886656e-03
423 1 18.29161952 0.00660199 5.31015937 5.98663784e-03
424 1 18.40369047 0.00659159 5.35853360 6.03862808e-03
425 1 18.51581031 0.00654220 5.40695414 6.08821513e-03
426 1 18.62795250 0.00654042 5.45546317 6.17296108e-03
427 1 18.74004842 0.00651283 5.50407628 6.04911048e-03
428 1 18.85208005 0.00656644 5.55269146 6.99423467e-03
429 1 18.96410366 0.00654956 5.60140588 6.49916941e-03
430 1 19.07611676 0.00650053 5.65017347 6.05139015e-03
431 1 19.18803035 0.00651265 5.69904853 6.07023001e-03
432 1 19.29999754 0.00644603 5.74790092 6.06423220e-03
433 1 19.41192905 0.00640858 5.79684981 6.03339671e-03
434 1 19.52387692 0.00634331 5.84582842 6.06123277e-03
435 1 19.63572526 0.00636676 5.89489148 6.05523286e-03
436 1 19.74758337 0.00629296 5.94400905 6.01539697e-03
437 1 19.85945036 0.00631397 5.99319398 6.05223237e-03
438 1 19.97129838 0.00624162 6.04237623 6.04623034e-03
439 1 20.08304088 0.00621282 6.09163183 5.99739088e-03
440 1 20.19484916 0.00617939 6.14097940 6.03386113e-03
441 1 20.30662364 0.00614372 6.19039030 6.06015229e-03
442 1 20.41833130 0.00608196 6.23979901 6.93292310e-03
443 1 20.53000468 0.00608119 6.28928588 6.60839364e-03
444 1 20.64169478 0.00601965 6.33881465 6.08325267e-03
445 1 20.75336999 0.00600869 6.38837620 5.98999100e-03
446 1 20.86504472 0.00597369 6.43800164 6.02220795e-03
447 1 20.97669111 0.00593885 6.48765494 5.94934321e-03
448 1 21.08832216 0.00586296 6.53734869 6.00521256e-03
449 1 21.19995110 0.00583057 6.58712048 5.96042100e-03
450 1 21.31153250 0.00580314 6.63687293 6.01327673e-03
451 1 21.42313422 0.00578647 6.68669339 6.06616825e-03
452 1 21.53471623 0.00572298 6.73652766 6.09206826e-03
453 1 21.64628917 0.00567231 6.78640906 6.22108889e-03
454 1 21.75786325 0.00562299 6.83631109 6.93510095e-03
455 1 21.86940947 0.00557848 6.88624412 6.55067958e-03
456 1 21.98091941 0.00552901 6.93620391 5.44215936e-03
457 1 22.09245918 0.00546724 6.98618289 5.52453627e-03
458 1 22.20398452 0.00543714 7.03620600 6.09206826e-03
459 1 22.31548511 0.00539872 7.08625682 5.52769247e-03
460 1 22.42698859 0.00533660 7.13631812 5.54504444e-03
461 1 22.53848195 0.00529279 7.18643101 6.09206826e-03
462 1 22.64994752 0.00523185 7.23653856 5.52433613e-03
463 1 22.76143892 0.00518223 7.28667572 5.54169116e-03
464 1 22.87290810 0.00514949 7.33682395 6.09959331e-03
465 1 22.98437562 0.00508221 7.38699097 5.37708140e-03
466 1 23.09584709 0.00503242 7.43718319 5.50601994e-03
467 1 23.20730872 0.00497729 7.48739166 6.09132348e-03
468 1 23.31875530 0.00492584 7.53760880 5.36406280e-03
469 1 23.43021309 0.00487350 7.58783978 5.50114066e-03
470 1 23.54166070 0.00482449 7.63807151 6.07613573e-03
471 1 23.65311814 0.00476629 7.68832645 5.86576563e-03
472 1 23.76456504 0.00471687 7.73858604 5.87763704e-03
473 1 23.87601234 0.00466656 7.78884567 5.79509293e-03
474 1 23.98745677 0.00460798 7.83912044 6.45795830e-03
475 1 24.09890342 0.00455295 7.88939107 6.36067877e-03
476 1 24.21035100 0.00449945 7.93966738 5.01672083e-03
477 1 0.12294603 1.20850971 -0.24465810 -5.06599779e-03
478 1 0.24601494 1.20792724 -0.24478746 -5.96099493e-03
479 1 0.36968109 1.20681710 -0.24358624 -6.06828787e-03
480 1 0.49339570 1.20714468 -0.24197546 -6.09081051e-03
481 1 0.61695152 1.20710070 -0.23927211 -6.09597885e-03
482 1 0.74048231 1.20726889 -0.23613050 -6.09677124e-03
483 1 0.86465686 1.20664987 -0.23188797 -6.09261604e-03
484 1 0.98833488 1.20710075 -0.22718247 -6.09210769e-03
485 1 1.11233079 1.20665819 -0.22094842 -6.09159289e-03
486 1 1.23565426 1.20675002 -0.21453887 -6.09258964e-03
487 1 1.35923485 1.20788041 -0.20798052 -6.11404233e-03
488 1 1.48252353 1.20805087 -0.20004382 -6.12924398e-03
489 1 1.60559550 1.20735195 -0.19166963 -6.13810471e-03
490 1 1.72884325 1.20749746 -0.18290047 -6.10740278e-03
491 1 1.85227587 1.20737786 -0.17309187 -6.11299929e-03
492 1 1.97559480 1.20761100 -0.16193354 -6.11651709e-03
493 1 2.09866852 1.20735677 -0.15146726 -6.10892752e-03
494 1 2.22179946 1.20835171 -0.13968603 -6.08383817e-03
495 1 2.34498420 1.20879621 -0.12708835 -6.07811671e-03
496 1 2.46764146 1.20859141 -0.11364140 -6.12167487e-03
497 1 2.59017844 1.20823459 -0.10012559 -6.12891596e-03
498 1 2.71295822 1.20882016 -0.08612671 -6.13439434e-03
499 1 2.83583689 1.20928820 -0.07094313 -6.11877956e-03
500 1 2.95839505 1.20890165 -0.05540109 -6.09486572e-03
501 1 3.08078999 1.20943655 -0.03937749 -6.09206826e-03
502 1 3.20353061 1.20947856 -0.02267889 -6.09206855e-03
503 1 3.32567065 1.20952677 -0.00531406 -6.09206932e-03
504 1 3.44736856 1.20977019 0.01244772 -6.11378764e-03
505 1 3.57009017 1.21060964 0.03069897 -6.10132488e-03
506 1 3.69162502 1.21087916 0.04957010 -6.14015253e-03
507 1 3.81336013 1.21069408 0.06861538 -6.18862768e-03
508 1 3.93479482 1.21121691 0.08877927 -6.20494803e-03
509 1 4.05637610 1.21130436 0.10865889 -6.16689241e-03
510 1 4.17766778 1.21140110 0.12946246 -6.13536340e-03
511 1 4.29911755 1.21142894 0.15038850 -6.09206826e-03
512 1 4.42034774 1.21149632 0.17180497 -6.09528258e-03
513 1 4.54176973 1.21198266 0.19352397 -6.10197805e-03
514 1 4.66322125 1.21190629 0.21581503 -6.09705471e-03
515 1 4.78418049 1.21224056 0.23867890 -6.06436498e-03
516 1 4.90541767 1.21203317 0.26228782 -6.12133674e-03
517 1 5.02608798 1.21243598 0.28589560 -6.20974613e-03
518 1 5.14688766 1.21283220 0.31007579 -6.24802334e-03
519 1 5.26738929 1.21308026 0.33477574 -6.19819175e-03
520 1 5.38817181 1.21272255 0.35990557 -6.15088270e-03
521 1 5.50888305 1.21298381 0.38547083 -6.13301438e-03
522 1 5.62917670 1.21358433 0.41142806 -6.10131989e-03
523 1 5.74970626 1.21365190 0.43786129 -6.05757291e-03
524 1 5.86987248 1.21407841 0.46464691 -6.04491082e-03
525 1 5.98970206 1.21407851 0.49211393 -6.05437557e-03
526 1 6.10988469 1.21460288 0.51964701 -6.06489385e-03
527 1 6.22962192 1.21492130 0.54757036 -6.09206826e-03
528 1 6.34936417 1.21525399 0.57602009 -6.09206826e-03
529 1 6.46908361 1.21501877 0.60487277 -6.09979510e-03
530 1 6.58852219 1.21525002 0.63407807 -6.12512692e-03
531 1 6.70804707 1.21569922 0.66354857 -6.16578501e-03
532 1 6.82742158 1.21557249 0.69372086 -6.26929389e-03
533 1 6.94643378 1.21578565 0.72380405 -6.28695529e-03
534 1 7.06587552 1.21634890 0.75407980 -6.28583704e-03
535 1 7.18491323 1.21629968 0.78494614 -6.23881179e-03
536 1 7.30408678 1.21651905 0.81629903 -6.30184580e-03
537 1 7.42289576 1.21678959 0.84789572 -6.28022129e-03
538 1 7.54169711 1.21705342 0.87964238 -6.24103982e-03
539 1 7.66052482 1.21732862 0.91175214 -6.33470904e-03
540 1 7.77928636 1.21708887 0.94453386 -6.28101331e-03