ITEM: TIMESTEP
0
ITEM: NUMBER OF ATOMS
10710
ITEM: BOX BOUNDS ff ff ff
-2.0 27.796307461778476
-2.001878558341408 3.2104055425374542
-2.2447982928122503 3.24777809787697
ITEM: ATOMS id type x y z q
1 2 0.00000000 0.00000000 0.24527477 3.35542180e-03
2 2 0.00000000 0.00000000 -0.24472523 -3.35542180e-03
3 2 0.00000000 1.21000000 0.24527477 3.41686920e-03
4 2 0.00000000 1.21000000 -0.24472523 -3.41686920e-03
5 1 25.76825657 -0.00187856 1.24380453 3.37776783e-03
6 1 25.79630746 -0.00026138 0.75461063 -3.37776783e-03
7 1 25.76816725 1.20812244 1.24777810 3.41686920e-03
8 1 25.79621916 1.20972231 0.75858438 -3.41686920e-03
9 2 0.00000000 0.00000000 -0.12222523 0.00000000e+00
10 2 0.00000000 0.00000000 0.00027477 0.00000000e+00
11 2 0.00000000 0.00000000 0.12277477 0.00000000e+00
12 2 0.00000000 0.12100000 0.24527477 5.18139194e-03
13 2 0.00000000 0.24200000 0.24527477 5.50362000e-03
14 2 0.00000000 0.36300000 0.24527477 5.01501884e-03
15 2 0.00000000 0.48400000 0.24527477 5.50904170e-03
16 2 0.00000000 0.60500000 0.24527477 6.02408537e-03
17 2 0.00000000 0.72600000 0.24527477 6.86123120e-03
18 2 0.00000000 0.84700000 0.24527477 6.83241897e-03
19 2 0.00000000 0.96800000 0.24527477 5.84994208e-03
20 2 0.00000000 1.08900000 0.24527477 4.96878236e-03
21 2 0.00000000 1.21000000 -0.12222523 0.00000000e+00
22 2 0.00000000 1.21000000 0.00027477 0.00000000e+00
23 2 0.00000000 1.21000000 0.12277477 0.00000000e+00
24 2 0.00000000 0.12100000 -0.24472523 -5.18139194e-03
25 2 0.00000000 0.24200000 -0.24472523 -5.50362000e-03
26 2 0.00000000 0.36300000 -0.24472523 -5.01501884e-03
27 2 0.00000000 0.48400000 -0.24472523 -5.50904170e-03
28 2 0.00000000 0.60500000 -0.24472523 -6.02408537e-03
29 2 0.00000000 0.72600000 -0.24472523 -6.86123120e-03
30 2 0.00000000 0.84700000 -0.24472523 -6.83241897e-03
31 2 0.00000000 0.96800000 -0.24472523 -5.84994208e-03
32 2 0.00000000 1.08900000 -0.24472523 -4.96878236e-03
33 1 25.78929407 -0.00066607 0.87690856 0.00000000e+00
34 1 25.78228180 -0.00107014 0.99920679 0.00000000e+00
35 1 25.77526956 -0.00147417 1.12150554 0.00000000e+00
36 1 25.76824869 0.11912073 1.24420388 5.05002864e-03
37 1 25.76823952 0.24012099 1.24460312 5.64089052e-03
38 1 25.76823076 0.36112090 1.24500236 5.44128437e-03
39 1 25.76822211 0.48212138 1.24540021 6.40224548e-03
40 1 25.76821376 0.60312196 1.24579878 6.88148315e-03
41 1 25.76820464 0.72412221 1.24619584 6.11583422e-03
42 1 25.76819551 0.84512242 1.24659191 5.69198232e-03
43 1 25.76818638 0.96612230 1.24698763 6.01735171e-03
44 1 25.76817714 1.08712278 1.24738317 5.43527194e-03
45 1 25.78920580 1.20932257 0.88088210 0.00000000e+00
46 1 25.78219335 1.20892227 1.00318069 0.00000000e+00
47 1 25.77518101 1.20852219 1.12547917 0.00000000e+00
48 1 25.79629822 0.12073700 0.75500984 -5.05002864e-03
49 1 25.79629022 0.24173544 0.75540917 -5.64089052e-03
50 1 25.79628128 0.36273433 0.75580840 -5.44128437e-03
51 1 25.79627270 0.48373259 0.75620674 -6.40224548e-03
52 1 25.79626415 0.60473066 0.75660445 -6.88148315e-03
53 1 25.79625572 0.72572865 0.75700119 -6.11583422e-03
54 1 25.79624637 0.84672663 0.75739760 -5.69198232e-03
55 1 25.79623729 0.96772515 0.75779326 -6.01735171e-03
56 1 25.79622734 1.08872381 0.75818879 -5.43527194e-03
57 1 0.12239582 0.00023527 -0.24479829 -4.80862070e-03
58 1 0.24481521 0.00042610 -0.24474739 -5.62714142e-03
59 1 0.36724424 0.00046737 -0.24466210 -6.00619986e-03
60 1 0.48971891 0.00047405 -0.24452020 -6.09052560e-03
61 1 0.61216556 0.00048966 -0.24429184 -6.09206826e-03
62 1 0.73462834 0.00056591 -0.24399929 -5.94781856e-03
63 1 0.85708190 0.00064573 -0.24365055 -5.82025544e-03
64 1 0.97952916 0.00059338 -0.24306995 -5.95871849e-03
65 1 1.10205788 0.00060872 -0.24253022 -6.09232315e-03
66 1 1.22453738 0.00057463 -0.24193445 -6.09205550e-03
67 1 1.34698495 0.00059582 -0.24121709 -6.08598370e-03
68 1 1.46945833 0.00066002 -0.24034130 -6.07933546e-03
69 1 1.59190850 0.00066637 -0.23952937 -6.08488133e-03
70 1 1.71436115 0.00065734 -0.23857253 -6.08161608e-03
71 1 1.83680087 0.00065741 -0.23755082 -6.08881076e-03
72 1 1.95932375 0.00063575 -0.23643461 -6.09207793e-03
73 1 2.08180085 0.00064787 -0.23527433 -6.09206431e-03
74 1 2.20428097 0.00070625 -0.23397707 -6.09206920e-03
75 1 2.32674794 0.00069526 -0.23265109 -6.09206749e-03
76 1 2.44918135 0.00067307 -0.23125369 -6.09206826e-03
77 1 2.57160175 0.00066749 -0.22980020 -6.09206901e-03
78 1 2.69406331 0.00059400 -0.22829340 -6.08547783e-03
79 1 2.81650297 0.00061807 -0.22671318 -6.07797420e-03
80 1 2.93893733 0.00069990 -0.22505833 -6.08460882e-03
81 1 3.06137350 0.00065550 -0.22334111 -6.08123045e-03
82 1 3.18379230 0.00067123 -0.22154199 -6.08867780e-03
83 1 3.30620199 0.00068118 -0.21967571 -6.09206866e-03
84 1 3.42864380 0.00068830 -0.21773651 -6.09206839e-03
85 1 3.55104720 0.00064430 -0.21577251 -6.09206833e-03
86 1 3.67347939 0.00060539 -0.21371480 -6.09206826e-03
87 1 3.79593221 0.00065914 -0.21161242 -6.09206824e-03
88 1 3.91834150 0.00067316 -0.20947184 -6.09206825e-03
89 1 4.04076416 0.00062019 -0.20728963 -6.10477040e-03
90 1 4.16318211 0.00067315 -0.20504031 -6.10144793e-03
91 1 4.28555938 0.00067145 -0.20270693 -6.09206826e-03
92 1 4.40799139 0.00065458 -0.20036324 -6.08473760e-03
93 1 4.53036436 0.00064486 -0.19794451 -6.07718969e-03
94 1 4.65276180 0.00067016 -0.19544714 -6.08430762e-03
95 1 4.77514930 0.00069401 -0.19292366 -6.08084602e-03
96 1 4.89755874 0.00067487 -0.19036771 -6.08857506e-03
97 1 5.01997507 0.00072222 -0.18772749 -6.09439460e-03
98 1 5.14238196 0.00067826 -0.18502727 -6.09360296e-03
99 1 5.26477225 0.00069049 -0.18223092 -6.10212083e-03
100 1 5.38717827 0.00066526 -0.17943594 -6.09455787e-03
101 1 5.50954038 0.00071979 -0.17659425 -6.08457013e-03
102 1 5.63190903 0.00070971 -0.17368219 -6.08334006e-03
103 1 5.75434539 0.00069711 -0.17069338 -6.09025173e-03
104 1 5.87669518 0.00069895 -0.16767498 -6.09206826e-03
105 1 5.99906772 0.00069901 -0.16461874 -6.09206826e-03
106 1 6.12143871 0.00074092 -0.16149625 -6.08838437e-03
107 1 6.24378685 0.00074050 -0.15832770 -6.09329454e-03
108 1 6.36618677 0.00069444 -0.15513093 -6.09400483e-03
109 1 6.48856292 0.00072337 -0.15186795 -6.08872179e-03
110 1 6.61095855 0.00074896 -0.14852143 -6.08812243e-03
111 1 6.73329158 0.00075535 -0.14514514 -6.09206826e-03
112 1 6.85566345 0.00075394 -0.14176301 -6.09206826e-03
113 1 6.97799707 0.00074761 -0.13832431 -6.09206826e-03
114 1 7.10032836 0.00076970 -0.13478473 -6.06302327e-03
115 1 7.22268587 0.00072120 -0.13122668 -6.06302327e-03
116 1 7.34505699 0.00072553 -0.12760648 -5.90236529e-03
117 1 7.46739728 0.00073531 -0.12393650 -5.81608564e-03
118 1 7.58972937 0.00073720 -0.12024763 -6.10035823e-03
119 1 7.71208227 0.00073392 -0.11650900 -5.08741334e-03
120 1 7.83440675 0.00073176 -0.11272829 -6.87719096e-03
121 1 7.95671660 0.00075492 -0.10890746 -5.18694999e-03
122 1 8.07908347 0.00071577 -0.10507243 -5.00655937e-03
123 1 8.20139803 0.00072712 -0.10115065 -7.17602109e-03
124 1 8.32372411 0.00076185 -0.09720727 -5.64123658e-03
125 1 8.44608477 0.00077325 -0.09322800 -5.91249038e-03
126 1 8.56838220 0.00075379 -0.08920327 -5.77202514e-03
127 1 8.69068757 0.00076060 -0.08514367 -5.95689302e-03
128 1 8.81302794 0.00077908 -0.08105121 -6.09206826e-03
129 1 8.93535509 0.00074001 -0.07689828 -6.09206826e-03
130 1 9.05766443 0.00074145 -0.07271712 -6.09206826e-03
131 1 9.17996776 0.00075526 -0.06850591 -6.00199927e-03
132 1 9.30229752 0.00081093 -0.06425972 -6.06987486e-03
133 1 9.42462028 0.00081450 -0.05995798 -5.02835518e-03
134 1 9.54692333 0.00080811 -0.05561887 -6.79157831e-03
135 1 9.66920665 0.00084609 -0.05121600 -4.92113473e-03
136 1 9.79153016 0.00081398 -0.04680136 -5.56259368e-03
137 1 9.91385385 0.00078526 -0.04232572 -5.94323360e-03
138 1 10.03617295 0.00081634 -0.03778839 -5.00637084e-03
139 1 10.15843979 0.00079179 -0.03325719 -6.75640181e-03
140 1 10.28072305 0.00075953 -0.02867917 -4.91035923e-03
141 1 10.40299944 0.00075488 -0.02404865 -5.75765677e-03
142 1 10.52528956 0.00075587 -0.01941353 -6.37465021e-03
143 1 10.64757557 0.00078089 -0.01474931 -6.33172667e-03
144 1 10.76984781 0.00078919 -0.01004347 -5.77695765e-03
145 1 10.89214488 0.00082130 -0.00531024 -5.75602868e-03
146 1 11.01442025 0.00080600 -0.00054944 -5.94989338e-03
147 1 11.13667869 0.00079077 0.00429267 -6.09206826e-03
148 1 11.25896061 0.00082491 0.00915141 -6.09206826e-03
149 1 11.38123963 0.00079692 0.01405389 -6.49862787e-03
150 1 11.50352427 0.00081449 0.01900012 -6.47806478e-03
151 1 11.62579665 0.00078342 0.02395394 -5.98398651e-03
152 1 11.74808260 0.00080669 0.02896060 -5.97118729e-03
153 1 11.87034191 0.00077930 0.03398127 -6.32827249e-03
154 1 11.99260464 0.00078221 0.03902556 -6.38296841e-03
155 1 12.11487361 0.00082193 0.04410130 -6.09206826e-03
156 1 12.23713396 0.00078545 0.04924129 -5.92176613e-03
157 1 12.35938153 0.00079597 0.05438760 -5.84196899e-03
158 1 12.48160665 0.00078799 0.05956907 -5.89327746e-03
159 1 12.60387603 0.00079840 0.06480599 -4.96011300e-03
160 1 12.72611579 0.00079966 0.07004952 -6.65158567e-03
161 1 12.84835637 0.00079982 0.07534035 -4.90989307e-03
162 1 12.97062540 0.00079491 0.08063280 -5.52395043e-03
163 1 13.09287156 0.00081629 0.08597407 -5.87068470e-03
164 1 13.21510885 0.00081331 0.09133571 -4.88602194e-03
165 1 13.33733860 0.00082208 0.09673310 -6.40279006e-03
166 1 13.45957215 0.00081401 0.10214926 -5.12407601e-03
167 1 13.58180339 0.00080260 0.10760672 -4.88216806e-03
168 1 13.70403273 0.00079519 0.11308005 -6.38017819e-03
169 1 13.82625768 0.00082406 0.11858678 -5.11373203e-03
170 1 13.94848232 0.00080939 0.12412414 -4.85398664e-03
171 1 14.07071614 0.00080361 0.12968623 -6.35577596e-03
172 1 14.19292443 0.00082593 0.13528884 -5.10698016e-03
173 1 14.31515650 0.00079749 0.14089408 -4.85870271e-03
174 1 14.43737216 0.00079980 0.14656338 -6.37702085e-03
175 1 14.55958970 0.00077255 0.15222360 -5.10092274e-03
176 1 14.68180242 0.00078370 0.15791854 -4.84968636e-03
177 1 14.80400477 0.00079092 0.16364785 -6.37599125e-03
178 1 14.92622367 0.00079041 0.16939394 -4.87710407e-03
179 1 15.04844304 0.00079334 0.17517399 -5.56677439e-03
180 1 15.17065990 0.00076720 0.18096750 -5.93477518e-03
181 1 15.29287039 0.00078389 0.18679817 -6.09206826e-03
182 1 15.41508037 0.00076970 0.19264688 -6.09206826e-03
183 1 15.53728083 0.00077693 0.19852038 -5.98211588e-03
184 1 15.65947470 0.00076850 0.20442237 -5.88223740e-03
185 1 15.78168002 0.00077321 0.21036148 -5.93479953e-03
186 1 15.90388519 0.00073347 0.21632142 -4.77734034e-03
187 1 16.02606994 0.00073481 0.22229888 -6.31776323e-03
188 1 16.14826147 0.00074591 0.22829052 -4.85845554e-03
189 1 16.27046336 0.00074739 0.23431861 -5.48045656e-03
190 1 16.39265319 0.00073392 0.24036594 -5.74774533e-03
191 1 16.51482812 0.00071732 0.24644337 -5.91938606e-03
192 1 16.63702571 0.00070255 0.25255698 -4.72601755e-03
193 1 16.75921667 0.00070874 0.25868094 -6.44309587e-03
194 1 16.88138501 0.00070229 0.26481953 -5.21392668e-03
195 1 17.00356319 0.00069241 0.27096443 -4.32492230e-03
196 1 17.12574589 0.00068332 0.27714426 -6.11554878e-03
197 1 17.24791590 0.00067477 0.28335643 -5.20526136e-03
198 1 17.37011040 0.00067155 0.28958199 -4.31230685e-03
199 1 17.49227077 0.00066309 0.29581784 -6.11716232e-03
200 1 17.61443297 0.00067571 0.30209779 -5.69773107e-03
201 1 17.73660788 0.00064706 0.30838462 -5.99314584e-03
202 1 17.85878405 0.00065082 0.31469554 -4.76350900e-03
203 1 17.98094556 0.00063361 0.32104333 -5.21120302e-03
204 1 18.10311528 0.00062802 0.32738717 -6.01204532e-03
205 1 18.22526714 0.00061414 0.33375451 -5.73233737e-03
206 1 18.34743692 0.00058780 0.34014574 -5.81943467e-03
207 1 18.46958455 0.00058863 0.34655885 -6.32655047e-03
208 1 18.59175800 0.00057240 0.35298994 -5.03614005e-03
209 1 18.71390749 0.00056068 0.35942174 -4.70280803e-03
210 1 18.83605312 0.00054931 0.36589699 -8.65683464e-03
211 1 18.95820928 0.00055110 0.37237511 -5.94692004e-03
212 1 19.08034883 0.00053884 0.37888762 -5.65885778e-03
213 1 19.20250995 0.00052691 0.38539441 -5.99277035e-03
214 1 19.32465283 0.00050324 0.39193620 -6.04066598e-03
215 1 19.44678795 0.00048446 0.39848458 -6.09206826e-03
216 1 19.56894459 0.00049709 0.40506033 -6.09206826e-03
217 1 19.69107500 0.00048602 0.41164279 -6.09206826e-03
218 1 19.81321967 0.00045813 0.41823643 -5.94140402e-03
219 1 19.93535518 0.00043982 0.42484883 -6.09135703e-03
220 1 20.05748913 0.00043280 0.43147722 -6.09135703e-03
221 1 20.17963282 0.00042021 0.43811876 -6.09206826e-03
222 1 20.30176516 0.00040621 0.44477530 -6.22362401e-03
223 1 20.42388682 0.00040706 0.45144786 -6.30618064e-03
224 1 20.54602063 0.00038574 0.45813111 -6.16079228e-03
225 1 20.66814862 0.00036546 0.46482425 -6.90076158e-03
226 1 20.79027087 0.00035420 0.47153376 -7.19612184e-03
227 1 20.91240059 0.00034168 0.47825295 -6.17999120e-03
228 1 21.03452547 0.00033632 0.48498880 -5.85545161e-03
229 1 21.15664632 0.00032082 0.49173419 -6.04373412e-03
230 1 21.27877309 0.00031566 0.49850005 -6.05837687e-03
231 1 21.40089720 0.00029422 0.50527356 -6.22625934e-03
232 1 21.52301066 0.00027419 0.51205809 -6.96326852e-03
233 1 21.64513284 0.00026069 0.51884925 -6.60839364e-03
234 1 21.76724310 0.00025191 0.52566373 -6.08325267e-03
235 1 21.88935388 0.00023660 0.53249236 -5.98999100e-03
236 1 22.01146864 0.00022655 0.53932311 -6.02220795e-03
237 1 22.13358042 0.00020324 0.54616769 -5.94934321e-03
238 1 22.25569013 0.00018627 0.55302129 -6.23085673e-03
239 1 22.37779230 0.00017313 0.55988206 -5.91383044e-03
240 1 22.49990499 0.00016301 0.56675164 -5.82022831e-03
241 1 22.62200704 0.00014337 0.57362818 -6.06616825e-03
242 1 22.74411503 0.00011957 0.58052142 -6.09206826e-03
243 1 22.86621202 0.00010738 0.58741911 -6.22108889e-03
244 1 22.98831284 0.00010403 0.59432012 -6.93510095e-03
245 1 23.11040975 0.00008999 0.60123626 -6.55067958e-03
246 1 23.23251349 0.00007096 0.60815137 -5.44215936e-03
247 1 23.35460509 0.00005898 0.61507731 -5.52453627e-03
248 1 23.47670444 0.00004952 0.62201078 -6.11677386e-03
249 1 23.59879372 0.00003190 0.62894902 -5.40422112e-03
250 1 23.72088959 0.00001041 0.63589602 -5.51625079e-03
251 1 23.84298383 -0.00000641 0.64285073 -6.10817079e-03
252 1 23.96507444 -0.00002369 0.64981022 -5.39058303e-03
253 1 24.08716338 -0.00003788 0.65677492 -5.51111698e-03
254 1 24.20925456 -0.00005774 0.66374234 -6.09959331e-03
255 1 24.33134094 -0.00007479 0.67071357 -5.37708140e-03
256 1 24.45342797 -0.00008318 0.67769145 -5.50601994e-03
257 1 24.57551307 -0.00010084 0.68466930 -6.09132348e-03
258 1 24.69759719 -0.00011926 0.69165326 -5.36406280e-03
259 1 24.81968049 -0.00013350 0.69864213 -5.50114066e-03
260 1 24.94176027 -0.00015031 0.70563265 -6.07613573e-03
261 1 25.06384151 -0.00016585 0.71262527 -5.86576563e-03
262 1 25.18592098 -0.00018376 0.71961971 -5.87763703e-03
263 1 25.30800141 -0.00019949 0.72661529 -5.79509293e-03
264 1 25.43007866 -0.00021518 0.73361308 -6.45795830e-03
265 1 25.55215631 -0.00023161 0.74061165 -6.36067877e-03
266 1 25.67423224 -0.00024718 0.74761047 -5.01672083e-03
267 1 0.12222949 -0.00011701 0.24515609 4.80862070e-03
268 1 0.24444028 -0.00022332 0.24514429 5.62714142e-03
269 1 0.36665009 -0.00021534 0.24519178 6.00619986e-03
270 1 0.48884723 -0.00022742 0.24540729 6.09052560e-03
271 1 0.61097173 -0.00031198 0.24563549 6.09206826e-03
272 1 0.73316530 -0.00036194 0.24592378 5.94781856e-03
273 1 0.85535099 -0.00038197 0.24634653 5.82025544e-03
274 1 0.97747562 -0.00031509 0.24678716 5.95871849e-03
275 1 1.09961095 -0.00031707 0.24735885 6.09232315e-03
276 1 1.22178589 -0.00034036 0.24804387 6.09205550e-03
277 1 1.34394398 -0.00030736 0.24871708 6.08598370e-03
278 1 1.46613126 -0.00034871 0.24946969 6.07933546e-03
279 1 1.58832702 -0.00037441 0.25035926 6.08488133e-03
280 1 1.71043977 -0.00037234 0.25128587 6.08161608e-03
281 1 1.83261456 -0.00041680 0.25233143 6.08881076e-03
282 1 1.95481826 -0.00044643 0.25344045 6.09207793e-03
283 1 2.07689173 -0.00042461 0.25458680 6.09206431e-03
284 1 2.19909678 -0.00036864 0.25582411 6.09206920e-03
285 1 2.32127415 -0.00039575 0.25718229 6.09206749e-03
286 1 2.44347132 -0.00039295 0.25859822 6.09206826e-03
287 1 2.56565753 -0.00038054 0.26002747 6.09206901e-03
288 1 2.68786404 -0.00041156 0.26159736 6.08547783e-03
289 1 2.81001364 -0.00040029 0.26315705 6.07797420e-03
290 1 2.93218565 -0.00038935 0.26482811 6.08460882e-03
291 1 3.05437724 -0.00035480 0.26653718 6.08123045e-03
292 1 3.17657806 -0.00034926 0.26835356 6.08867780e-03
293 1 3.29871637 -0.00036227 0.27018220 6.09206866e-03
294 1 3.42089177 -0.00041176 0.27208482 6.09206839e-03
295 1 3.54306942 -0.00037237 0.27406872 6.09206833e-03
296 1 3.66525553 -0.00038791 0.27610812 6.09206826e-03
297 1 3.78746819 -0.00040773 0.27820823 6.09206824e-03
298 1 3.90962189 -0.00043179 0.28034447 6.09206825e-03
299 1 4.03180634 -0.00042564 0.28256078 6.10477040e-03
300 1 4.15395441 -0.00039662 0.28481227 6.10144793e-03
301 1 4.27617003 -0.00039111 0.28712458 6.09206826e-03
302 1 4.39837260 -0.00038820 0.28948750 6.08473760e-03
303 1 4.52056759 -0.00043308 0.29185118 6.07718969e-03
304 1 4.64277229 -0.00048905 0.29431109 6.08430762e-03
305 1 4.76494349 -0.00040907 0.29685236 6.08084602e-03
306 1 4.88711755 -0.00042969 0.29943225 6.08857506e-03
307 1 5.00929147 -0.00046634 0.30209073 6.09439460e-03
308 1 5.13147456 -0.00048892 0.30479373 6.09360296e-03
309 1 5.25363554 -0.00042597 0.30752133 6.10212083e-03
310 1 5.37578308 -0.00045007 0.31032780 6.09455787e-03
311 1 5.49797310 -0.00045672 0.31318450 6.08457013e-03
312 1 5.62016244 -0.00043903 0.31609071 6.08334006e-03
313 1 5.74231979 -0.00044413 0.31904123 6.09025173e-03
314 1 5.86450015 -0.00047489 0.32204650 6.09206826e-03
315 1 5.98671139 -0.00049257 0.32511317 6.09206826e-03
316 1 6.10887248 -0.00048675 0.32821385 6.08838437e-03
317 1 6.23103511 -0.00045839 0.33140976 6.09329454e-03
318 1 6.35317496 -0.00053571 0.33464299 6.09400483e-03
319 1 6.47536265 -0.00053802 0.33789527 6.08872179e-03
320 1 6.59755335 -0.00053495 0.34118708 6.08812243e-03
321 1 6.71970144 -0.00051411 0.34450924 6.09206826e-03
322 1 6.84187520 -0.00052847 0.34793554 6.09206826e-03
323 1 6.96405618 -0.00049803 0.35142015 6.09206826e-03
324 1 7.08620338 -0.00051223 0.35493213 6.06302327e-03
325 1 7.20835929 -0.00049828 0.35849518 6.06302327e-03
326 1 7.33051525 -0.00049902 0.36209515 5.90236529e-03
327 1 7.45269960 -0.00048687 0.36575774 5.81608564e-03
328 1 7.57488601 -0.00045694 0.36945404 6.10035823e-03
329 1 7.69703802 -0.00049178 0.37319872 5.08741347e-03
330 1 7.81924162 -0.00050900 0.37693453 6.88423117e-03
331 1 7.94139676 -0.00048996 0.38078333 4.95164977e-03
332 1 8.06352213 -0.00048765 0.38461177 5.63292633e-03
333 1 8.18568981 -0.00051196 0.38852159 5.95654755e-03
334 1 8.30786010 -0.00051696 0.39245811 6.00432988e-03
335 1 8.43002338 -0.00050329 0.39643479 6.08757506e-03
336 1 8.55218490 -0.00050317 0.40045983 5.05700823e-03
337 1 8.67435676 -0.00053784 0.40450082 6.83715280e-03
338 1 8.79651001 -0.00051866 0.40857703 4.93632937e-03
339 1 8.91868765 -0.00054728 0.41273312 5.62467055e-03
340 1 9.04083128 -0.00057620 0.41689901 5.95386311e-03
341 1 9.16296366 -0.00057258 0.42112897 6.00199927e-03
342 1 9.28513757 -0.00057942 0.42539149 6.06987486e-03
343 1 9.40725446 -0.00059262 0.42968867 5.01509653e-03
344 1 9.52942894 -0.00058305 0.43400624 6.78511241e-03
345 1 9.65157583 -0.00060176 0.43837915 4.92113473e-03
346 1 9.77373100 -0.00061553 0.44282125 5.61645056e-03
347 1 9.89586172 -0.00058959 0.44729649 5.95118153e-03
348 1 10.01801108 -0.00060798 0.45178500 6.09206826e-03
349 1 10.14013949 -0.00059996 0.45634926 6.09206826e-03
350 1 10.26228341 -0.00061371 0.46090866 6.09206826e-03
351 1 10.38445144 -0.00060871 0.46551963 6.50085567e-03
352 1 10.50660082 -0.00061763 0.47015172 6.38496347e-03
353 1 10.62876633 -0.00062695 0.47481796 5.77251663e-03
354 1 10.75089504 -0.00063742 0.47952280 5.73476969e-03
355 1 10.87305583 -0.00065101 0.48425866 5.94888879e-03
356 1 10.99519864 -0.00069110 0.48902996 6.09206826e-03
357 1 11.11732693 -0.00066570 0.49383797 6.09206826e-03
358 1 11.23947251 -0.00067997 0.49869633 6.09206826e-03
359 1 11.36160076 -0.00070433 0.50358324 6.09206826e-03
360 1 11.48370937 -0.00068920 0.50853052 4.98457375e-03
361 1 11.60586674 -0.00068558 0.51348788 6.69756871e-03
362 1 11.72801794 -0.00067803 0.51847856 5.15375987e-03
363 1 11.85013252 -0.00068776 0.52349385 4.95985007e-03
364 1 11.97226031 -0.00069820 0.52853252 6.48212442e-03
365 1 12.09440843 -0.00071450 0.53363246 5.14927068e-03
366 1 12.21653430 -0.00069872 0.53874446 4.95341033e-03
367 1 12.33866271 -0.00074329 0.54391097 6.46347279e-03
368 1 12.46077699 -0.00070688 0.54907583 5.14043101e-03
369 1 12.58289120 -0.00073886 0.55430274 4.91020010e-03
370 1 12.70504355 -0.00072808 0.55953515 6.45556760e-03
371 1 12.82718115 -0.00073198 0.56481148 4.90989307e-03
372 1 12.94930894 -0.00074965 0.57012077 5.52395043e-03
373 1 13.07143139 -0.00073746 0.57545121 5.87068470e-03
374 1 13.19353887 -0.00073974 0.58082235 4.87920209e-03
375 1 13.31566474 -0.00075936 0.58620673 6.41661913e-03
376 1 13.43778177 -0.00076073 0.59162787 4.89988333e-03
377 1 13.55991014 -0.00075360 0.59706389 5.51681014e-03
378 1 13.68203590 -0.00075578 0.60254038 5.85936171e-03
379 1 13.80413532 -0.00077302 0.60805698 4.85938456e-03
380 1 13.92624588 -0.00077027 0.61357356 6.38254444e-03
381 1 14.04837399 -0.00079548 0.61912122 4.88995824e-03
382 1 14.17049234 -0.00079806 0.62471947 5.57476230e-03
383 1 14.29260022 -0.00076897 0.63033853 5.93743790e-03
384 1 14.41470011 -0.00081421 0.63597909 5.98766457e-03
385 1 14.53680949 -0.00081350 0.64163339 5.96043235e-03
386 1 14.65891865 -0.00080199 0.64734119 4.81637844e-03
387 1 14.78104478 -0.00081665 0.65307901 6.34214196e-03
388 1 14.90315926 -0.00081422 0.65880688 4.87620659e-03
389 1 15.02526724 -0.00081750 0.66457129 5.56677439e-03
390 1 15.14737454 -0.00084350 0.67035738 5.93477518e-03
391 1 15.26946748 -0.00085103 0.67618062 5.98532808e-03
392 1 15.39157427 -0.00084406 0.68203172 5.94249673e-03
393 1 15.51366967 -0.00086837 0.68790283 4.79106117e-03
394 1 15.63577128 -0.00088826 0.69381159 6.34873408e-03
395 1 15.75785801 -0.00085812 0.69974013 5.10720957e-03
396 1 15.87995314 -0.00089121 0.70570009 4.79385489e-03
397 1 16.00205729 -0.00091581 0.71166602 6.33054845e-03
398 1 16.12417058 -0.00093355 0.71767233 5.10009402e-03
399 1 16.24624609 -0.00093746 0.72368783 4.78369059e-03
400 1 16.36836124 -0.00092742 0.72972715 6.31203828e-03
401 1 16.49045775 -0.00093893 0.73579080 5.09300092e-03
402 1 16.61253408 -0.00093843 0.74188204 4.74903927e-03
403 1 16.73462710 -0.00094855 0.74801292 6.32830758e-03
404 1 16.85673779 -0.00095401 0.75413872 5.08343922e-03
405 1 16.97883597 -0.00096707 0.76031396 4.32591159e-03
406 1 17.10092036 -0.00099690 0.76648525 6.00104739e-03
407 1 17.22301915 -0.00098345 0.77269130 5.21119202e-03
408 1 17.34508456 -0.00101487 0.77890763 6.09206826e-03
409 1 17.46718497 -0.00103153 0.78514803 6.05153388e-03
410 1 17.58926056 -0.00102913 0.79140914 5.91774538e-03
411 1 17.71135776 -0.00104796 0.79769002 6.22305381e-03
412 1 17.83344957 -0.00104664 0.80400958 5.03791106e-03
413 1 17.95553080 -0.00106422 0.81034257 4.72607940e-03
414 1 18.07762522 -0.00106589 0.81668676 8.71836332e-03
415 1 18.19971210 -0.00109214 0.82305506 5.95355142e-03
416 1 18.32179616 -0.00109176 0.82943745 5.36960420e-03
417 1 18.44387974 -0.00112777 0.83584262 6.03255871e-03
418 1 18.56595879 -0.00113244 0.84225940 5.00245570e-03
419 1 18.68802626 -0.00115082 0.84869926 4.70280803e-03
420 1 18.81011045 -0.00114323 0.85516726 8.65685956e-03
421 1 18.93218977 -0.00115701 0.86165517 5.94692135e-03
422 1 19.05427658 -0.00117835 0.86814479 5.65886656e-03
423 1 19.17636183 -0.00118666 0.87466596 5.98663784e-03
424 1 19.29842714 -0.00119710 0.88120648 6.03862808e-03
425 1 19.42050366 -0.00121558 0.88775235 6.08821513e-03
426 1 19.54259161 -0.00122473 0.89431403 6.17296108e-03
427 1 19.66467768 -0.00123918 0.90089941 6.04911048e-03
428 1 19.78675192 -0.00123582 0.90749029 6.99423467e-03
429 1 19.90883135 -0.00124593 0.91410191 6.49916941e-03
430 1 20.03091140 -0.00126371 0.92072749 6.05139015e-03
431 1 20.15297933 -0.00126786 0.92738095 6.07023001e-03
432 1 20.27505641 -0.00128934 0.93402557 6.06423220e-03
433 1 20.39713350 -0.00130414 0.94069327 6.03339671e-03
434 1 20.51921510 -0.00132462 0.94736626 6.06123277e-03
435 1 20.64128338 -0.00132573 0.95406175 6.05523286e-03
436 1 20.76335737 -0.00134797 0.96076961 6.01539697e-03
437 1 20.88543823 -0.00135069 0.96749107 6.05223237e-03
438 1 21.00751523 -0.00137248 0.97421477 6.04623034e-03
439 1 21.12957461 -0.00138409 0.98096037 5.99739088e-03
440 1 21.25165474 -0.00139758 0.98772069 6.03386113e-03
441 1 21.37373272 -0.00141017 0.99449678 6.06015229e-03
442 1 21.49579669 -0.00142826 1.00127899 6.93292310e-03
443 1 21.61785938 -0.00143487 1.00807854 6.60839364e-03
444 1 21.73992846 -0.00145289 1.01488840 6.08325267e-03
445 1 21.86199723 -0.00145976 1.02170460 5.98999100e-03
446 1 21.98407089 -0.00147159 1.02853608 6.02220795e-03
447 1 22.10614058 -0.00148332 1.03537620 5.94934321e-03
448 1 22.22821012 -0.00150468 1.04222709 6.00521256e-03
449 1 22.35028508 -0.00151506 1.04909379 5.96042100e-03
450 1 22.47234790 -0.00152468 1.05596210 6.01327673e-03
451 1 22.59442071 -0.00153158 1.06284194 6.06616825e-03
452 1 22.71648987 -0.00154864 1.06972788 6.09206826e-03
453 1 22.83856055 -0.00156363 1.07662306 6.22108889e-03
454 1 22.96063306 -0.00157768 1.08352407 6.93510095e-03
455 1 23.08270175 -0.00159002 1.09043479 6.55067958e-03
456 1 23.20476489 -0.00160382 1.09735486 5.44215936e-03
457 1 23.32683591 -0.00162085 1.10427602 5.52453627e-03
458 1 23.44890743 -0.00162998 1.11120786 6.09206826e-03
459 1 23.57097581 -0.00164097 1.11814886 5.52769247e-03
460 1 23.69304535 -0.00165636 1.12509257 5.54504444e-03
461 1 23.81511678 -0.00166763 1.13204816 6.09206826e-03
462 1 23.93718140 -0.00168357 1.13900614 5.52433613e-03
463 1 24.05925436 -0.00169620 1.14596838 5.54169116e-03
464 1 24.18132280 -0.00170384 1.15293523 6.09959331e-03
465 1 24.30339240 -0.00172024 1.15990763 5.37708140e-03
466 1 24.42546489 -0.00173299 1.16688374 5.50601994e-03
467 1 24.54753650 -0.00174613 1.17386477 6.09132348e-03
468 1 24.66960515 -0.00175892 1.18084976 5.36406280e-03
469 1 24.79167708 -0.00177205 1.18783705 5.50114066e-03
470 1 24.91374690 -0.00178392 1.19482557 6.07613573e-03
471 1 25.03582084 -0.00179856 1.20181832 5.86576563e-03
472 1 25.15789235 -0.00181079 1.20881320 5.87763704e-03
473 1 25.27996397 -0.00182352 1.21580878 5.79509293e-03
474 1 25.40203713 -0.00183773 1.22280702 6.45795830e-03
475 1 25.52410967 -0.00185086 1.22980534 6.36067877e-03
476 1 25.64618295 -0.00186428 1.23680471 5.01672083e-03
477 1 0.12238469 1.20979827 -0.24469279 -5.06599779e-03
478 1 0.24477146 1.20970272 -0.24468866 -5.96099493e-03
479 1 0.36722331 1.20955612 -0.24455782 -6.06828787e-03
480 1 0.48969128 1.20958030 -0.24438978 -6.09081051e-03
481 1 0.61214601 1.20956801 -0.24410262 -6.09597885e-03
482 1 0.73459941 1.20958406 -0.24377018 -6.09677124e-03
483 1 0.85712663 1.20951131 -0.24332608 -6.09261604e-03
484 1 0.97960108 1.20955710 -0.24282828 -6.09210769e-03
485 1 1.10212163 1.20950061 -0.24216991 -6.09159289e-03
486 1 1.22456685 1.20950271 -0.24148949 -6.09258964e-03
487 1 1.34704358 1.20962482 -0.24079534 -6.11404233e-03
488 1 1.46949499 1.20963965 -0.23994876 -6.12924398e-03
489 1 1.59192716 1.20955586 -0.23904897 -6.13810471e-03
490 1 1.71438194 1.20956556 -0.23810385 -6.10740278e-03
491 1 1.83686356 1.20954391 -0.23705016 -6.11299929e-03
492 1 1.95934696 1.20956362 -0.23585035 -6.11651709e-03
493 1 2.08179370 1.20952719 -0.23472229 -6.10892752e-03
494 1 2.20425818 1.20963305 -0.23345175 -6.08383817e-03
495 1 2.32674377 1.20967043 -0.23208706 -6.07811671e-03
496 1 2.44917646 1.20963759 -0.23062845 -6.12167487e-03
497 1 2.57159103 1.20958625 -0.22916284 -6.12891596e-03
498 1 2.69404331 1.20964467 -0.22764192 -6.13439434e-03
499 1 2.81652425 1.20968844 -0.22599452 -6.11877956e-03
500 1 2.93896904 1.20962961 -0.22429638 -6.09486572e-03
501 1 3.06140206 1.20968049 -0.22254366 -6.09206826e-03
502 1 3.18388789 1.20967270 -0.22072076 -6.09206855e-03
503 1 3.30630982 1.20966834 -0.21881627 -6.09206932e-03
504 1 3.42869079 1.20968098 -0.21685405 -6.11378764e-03
505 1 3.55119565 1.20976760 -0.21485399 -6.10132488e-03
506 1 3.67357109 1.20978870 -0.21276772 -6.14015253e-03
507 1 3.79597638 1.20975191 -0.21066633 -6.18862768e-03
508 1 3.91836377 1.20980322 -0.20842662 -6.20494803e-03
509 1 4.04076180 1.20980022 -0.20622315 -6.16689241e-03
510 1 4.16314370 1.20979876 -0.20390738 -6.13536340e-03
511 1 4.28554661 1.20978244 -0.20158156 -6.09206826e-03
512 1 4.40793468 1.20977287 -0.19919311 -6.09528258e-03
513 1 4.53035003 1.20981881 -0.19677374 -6.10197805e-03
514 1 4.65277754 1.20979522 -0.19428626 -6.09705471e-03
515 1 4.77516014 1.20982540 -0.19172430 -6.06436498e-03
516 1 4.89759627 1.20978701 -0.18908070 -6.12133674e-03
517 1 5.01996008 1.20982387 -0.18642800 -6.20974613e-03
518 1 5.14235050 1.20986021 -0.18370806 -6.24802334e-03
519 1 5.26471737 1.20987600 -0.18092057 -6.19819175e-03
520 1 5.38712880 1.20981484 -0.17809009 -6.15088270e-03
521 1 5.50954214 1.20983647 -0.17520555 -6.13301438e-03
522 1 5.63191392 1.20989769 -0.17226216 -6.10131989e-03
523 1 5.75432467 1.20988970 -0.16926729 -6.05757291e-03
524 1 5.87670017 1.20992907 -0.16622217 -6.04491082e-03
525 1 5.99905107 1.20991177 -0.16308540 -6.05437557e-03
526 1 6.12144725 1.20996295 -0.15994908 -6.06489385e-03
527 1 6.24379906 1.20998809 -0.15675295 -6.09206826e-03
528 1 6.36616368 1.21001615 -0.15349412 -6.09206826e-03
529 1 6.48854114 1.20996689 -0.15019164 -6.09979510e-03
530 1 6.61089126 1.20998065 -0.14683391 -6.12512692e-03
531 1 6.73325759 1.21002169 -0.14344465 -6.16578501e-03
532 1 6.85562375 1.20998693 -0.13996173 -6.26929389e-03
533 1 6.97793942 1.20999929 -0.13647923 -6.28695529e-03
534 1 7.10031776 1.21005667 -0.13298554 -6.28583704e-03
535 1 7.22266146 1.21003344 -0.12940606 -6.23881179e-03