ITEM: TIMESTEP
0
ITEM: NUMBER OF ATOMS
10710
ITEM: BOX BOUNDS ff ff ff
-2.0 27.806451855677967
-2.0008609352891353 3.2102293605024177
-2.2447515258561177 2.749086897306793
ITEM: ATOMS id type x y z q
1 2 0.00000000 0.00000000 0.24527477 3.35542180e-03
2 2 0.00000000 0.00000000 -0.24472523 -3.35542180e-03
3 2 0.00000000 1.21000000 0.24527477 3.41686920e-03
4 2 0.00000000 1.21000000 -0.24472523 -3.41686920e-03
5 1 25.79233610 -0.00086094 0.74708038 3.37776783e-03
6 1 25.80644517 -0.00004442 0.25728447 -3.37776783e-03
7 1 25.79234224 1.20914117 0.74908690 3.41686920e-03
8 1 25.80645186 1.20994890 0.25929107 -3.41686920e-03
9 2 0.00000000 0.00000000 -0.12222523 0.00000000e+00
10 2 0.00000000 0.00000000 0.00027477 0.00000000e+00
11 2 0.00000000 0.00000000 0.12277477 0.00000000e+00
12 2 0.00000000 0.12100000 0.24527477 5.18139194e-03
13 2 0.00000000 0.24200000 0.24527477 5.50362000e-03
14 2 0.00000000 0.36300000 0.24527477 5.01501884e-03
15 2 0.00000000 0.48400000 0.24527477 5.50904170e-03
16 2 0.00000000 0.60500000 0.24527477 6.02408537e-03
17 2 0.00000000 0.72600000 0.24527477 6.86123120e-03
18 2 0.00000000 0.84700000 0.24527477 6.83241897e-03
19 2 0.00000000 0.96800000 0.24527477 5.84994208e-03
20 2 0.00000000 1.08900000 0.24527477 4.96878236e-03
21 2 0.00000000 1.21000000 -0.12222523 0.00000000e+00
22 2 0.00000000 1.21000000 0.00027477 0.00000000e+00
23 2 0.00000000 1.21000000 0.12277477 0.00000000e+00
24 2 0.00000000 0.12100000 -0.24472523 -5.18139194e-03
25 2 0.00000000 0.24200000 -0.24472523 -5.50362000e-03
26 2 0.00000000 0.36300000 -0.24472523 -5.01501884e-03
27 2 0.00000000 0.48400000 -0.24472523 -5.50904170e-03
28 2 0.00000000 0.60500000 -0.24472523 -6.02408537e-03
29 2 0.00000000 0.72600000 -0.24472523 -6.86123120e-03
30 2 0.00000000 0.84700000 -0.24472523 -6.83241897e-03
31 2 0.00000000 0.96800000 -0.24472523 -5.84994208e-03
32 2 0.00000000 1.08900000 -0.24472523 -4.96878236e-03
33 1 25.80291761 -0.00024876 0.37973316 0.00000000e+00
34 1 25.79939060 -0.00045278 0.50218202 0.00000000e+00
35 1 25.79586354 -0.00065680 0.62463116 0.00000000e+00
36 1 25.79233749 0.12013883 0.74728206 5.05002864e-03
37 1 25.79233829 0.24113910 0.74748366 5.64089052e-03
38 1 25.79233917 0.36213923 0.74768527 5.44128437e-03
39 1 25.79234003 0.48313969 0.74788613 6.40224548e-03
40 1 25.79234091 0.60414013 0.74808742 6.88148315e-03
41 1 25.79234144 0.72514039 0.74828799 6.11583422e-03
42 1 25.79234183 0.84614067 0.74848793 5.69198232e-03
43 1 25.79234215 0.96714079 0.74868777 6.01735171e-03
44 1 25.79234232 1.08814119 0.74888749 5.43527194e-03
45 1 25.80292432 1.20974706 0.38173965 0.00000000e+00
46 1 25.79939716 1.20954494 0.50418871 0.00000000e+00
47 1 25.79587005 1.20934299 0.62663768 0.00000000e+00
48 1 25.80644588 0.12095488 0.25748601 -5.05002864e-03
49 1 25.80644727 0.24195427 0.25768770 -5.64089052e-03
50 1 25.80644806 0.36295386 0.25788927 -5.44128437e-03
51 1 25.80644893 0.48395318 0.25809044 -6.40224548e-03
52 1 25.80644976 0.60495235 0.25829129 -6.88148315e-03
53 1 25.80645068 0.72595150 0.25849163 -6.11583422e-03
54 1 25.80645089 0.84695062 0.25869178 -5.69198232e-03
55 1 25.80645126 0.96795000 0.25889155 -6.01735171e-03
56 1 25.80645107 1.08894949 0.25909129 -5.43527194e-03
57 1 0.12235286 0.00014053 -0.24475153 -4.80862070e-03
58 1 0.24471553 0.00025819 -0.24471864 -5.62714142e-03
59 1 0.36708669 0.00028953 -0.24467231 -6.00619986e-03
60 1 0.48948057 0.00029996 -0.24460250 -6.09052560e-03
61 1 0.61186241 0.00031183 -0.24448844 -6.09206826e-03
62 1 0.73425402 0.00035037 -0.24434708 -5.94781856e-03
63 1 0.85664279 0.00039079 -0.24417397 -5.82025544e-03
64 1 0.97902658 0.00036348 -0.24388054 -5.95871849e-03
65 1 1.10145154 0.00037214 -0.24360989 -6.09232315e-03
66 1 1.22385066 0.00035445 -0.24331396 -6.09205550e-03
67 1 1.34623224 0.00036285 -0.24295836 -6.08598370e-03
68 1 1.46863028 0.00039454 -0.24252174 -6.07933546e-03
69 1 1.59101767 0.00039588 -0.24211910 -6.08488133e-03
70 1 1.71340503 0.00039169 -0.24163822 -6.08161608e-03
71 1 1.83578758 0.00039254 -0.24112817 -6.08881076e-03
72 1 1.95821048 0.00038102 -0.24056906 -6.09207793e-03
73 1 2.08061057 0.00038462 -0.23998642 -6.09206431e-03
74 1 2.20301425 0.00041404 -0.23933604 -6.09206920e-03
75 1 2.32541024 0.00040762 -0.23867059 -6.09206749e-03
76 1 2.44778844 0.00039809 -0.23797122 -6.09206826e-03
77 1 2.57016025 0.00039390 -0.23724480 -6.09206901e-03
78 1 2.69255523 0.00035376 -0.23649108 -6.08547783e-03
79 1 2.81494069 0.00036574 -0.23570076 -6.07797420e-03
80 1 2.93732054 0.00040832 -0.23486909 -6.08460882e-03
81 1 3.05970192 0.00038667 -0.23400702 -6.08123045e-03
82 1 3.18207398 0.00039391 -0.23310773 -6.08867780e-03
83 1 3.30444225 0.00039778 -0.23217397 -6.09206866e-03
84 1 3.42682516 0.00040180 -0.23120234 -6.09206839e-03
85 1 3.54918933 0.00037877 -0.23021671 -6.09206833e-03
86 1 3.67156792 0.00035728 -0.22918498 -6.09206826e-03
87 1 3.79395976 0.00038185 -0.22813275 -6.09206824e-03
88 1 3.91632749 0.00038901 -0.22705991 -6.09206825e-03
89 1 4.03870389 0.00036391 -0.22596623 -6.10477040e-03
90 1 4.16107735 0.00039372 -0.22484055 -6.10144793e-03
91 1 4.28342990 0.00039535 -0.22367132 -6.09206826e-03
92 1 4.40581074 0.00038785 -0.22249616 -6.08473760e-03
93 1 4.52816270 0.00038100 -0.22128478 -6.07718969e-03
94 1 4.65052494 0.00039476 -0.22003130 -6.08430762e-03
95 1 4.77288416 0.00040702 -0.21876473 -6.08084602e-03
96 1 4.89525585 0.00039715 -0.21748041 -6.08857506e-03
97 1 5.01762934 0.00041835 -0.21615580 -6.09439460e-03
98 1 5.13999890 0.00039586 -0.21479962 -6.09360296e-03
99 1 5.26236155 0.00040163 -0.21339455 -6.10212083e-03
100 1 5.38472973 0.00038773 -0.21199117 -6.09455787e-03
101 1 5.50707520 0.00041643 -0.21056730 -6.08457013e-03
102 1 5.62942304 0.00041450 -0.20910823 -6.08334006e-03
103 1 5.75180805 0.00040924 -0.20761107 -6.09025173e-03
104 1 5.87414799 0.00041061 -0.20609680 -6.09206826e-03
105 1 5.99650087 0.00041211 -0.20456329 -6.09206826e-03
106 1 6.11885294 0.00043236 -0.20299607 -6.08838437e-03
107 1 6.24119286 0.00043221 -0.20140431 -6.09329454e-03
108 1 6.36355810 0.00040852 -0.19980043 -6.09400483e-03
109 1 6.48591472 0.00042333 -0.19816427 -6.08872179e-03
110 1 6.60827924 0.00043429 -0.19648521 -6.08812243e-03
111 1 6.73061167 0.00043923 -0.19479308 -6.09206826e-03
112 1 6.85296555 0.00044158 -0.19309962 -6.09206826e-03
113 1 6.97529990 0.00043813 -0.19137526 -6.09206826e-03
114 1 7.09763389 0.00045067 -0.18959892 -6.06302327e-03
115 1 7.21998096 0.00042660 -0.18781340 -6.06302327e-03
116 1 7.34233578 0.00042775 -0.18599593 -5.90236529e-03
117 1 7.46467360 0.00043392 -0.18415403 -5.81608564e-03
118 1 7.58700780 0.00043363 -0.18230550 -6.10035823e-03
119 1 7.70935446 0.00043280 -0.18043239 -5.08741334e-03
120 1 7.83168671 0.00043391 -0.17853891 -6.87719096e-03
121 1 7.95401106 0.00045011 -0.17662503 -5.18694999e-03
122 1 8.07636595 0.00042870 -0.17470348 -5.00655937e-03
123 1 8.19869506 0.00043360 -0.17273172 -7.17602109e-03
124 1 8.32102755 0.00045258 -0.17075394 -5.64123658e-03
125 1 8.44337788 0.00046036 -0.16876054 -5.91249038e-03
126 1 8.56569410 0.00045124 -0.16674092 -5.77202514e-03
127 1 8.68801562 0.00045708 -0.16470445 -5.95689302e-03
128 1 8.81035653 0.00046604 -0.16265257 -6.09206826e-03
129 1 8.93269351 0.00044616 -0.16057026 -6.09206826e-03
130 1 9.05502079 0.00044737 -0.15847185 -6.09206826e-03
131 1 9.17734364 0.00045523 -0.15635781 -6.00199927e-03
132 1 9.29967958 0.00048502 -0.15422760 -6.06987486e-03
133 1 9.42201335 0.00048694 -0.15206788 -5.02835518e-03
134 1 9.54433643 0.00048479 -0.14988940 -6.79157831e-03
135 1 9.66664972 0.00050655 -0.14768294 -4.92113473e-03
136 1 9.78898597 0.00049032 -0.14546716 -5.56259368e-03
137 1 9.91132144 0.00047407 -0.14322014 -5.94323360e-03
138 1 10.03365547 0.00048824 -0.14094252 -5.00637084e-03
139 1 10.15596030 0.00047422 -0.13866841 -6.75640181e-03
140 1 10.27827619 0.00045885 -0.13637387 -4.91035923e-03
141 1 10.40058813 0.00045646 -0.13404924 -5.75765677e-03
142 1 10.52290710 0.00045512 -0.13172156 -6.37465021e-03
143 1 10.64522419 0.00046639 -0.12938089 -6.33172667e-03
144 1 10.76753490 0.00046986 -0.12701943 -5.77695765e-03
145 1 10.88985838 0.00048660 -0.12464431 -5.75602868e-03
146 1 11.01217027 0.00047904 -0.12225404 -5.94989338e-03
147 1 11.13447453 0.00047080 -0.11982271 -6.09206826e-03
148 1 11.25679068 0.00048724 -0.11738452 -6.09206826e-03
149 1 11.37910660 0.00047219 -0.11492208 -6.49862787e-03
150 1 11.50142550 0.00048186 -0.11243972 -6.47806478e-03
151 1 11.62373835 0.00046702 -0.10995152 -5.98398651e-03
152 1 11.74605833 0.00047977 -0.10743955 -5.97118729e-03
153 1 11.86836568 0.00046513 -0.10492149 -6.32827249e-03
154 1 11.99067429 0.00046747 -0.10238850 -6.38296841e-03
155 1 12.11298665 0.00048702 -0.09984072 -6.09206826e-03
156 1 12.23529458 0.00046818 -0.09725935 -5.92176613e-03
157 1 12.35759643 0.00047452 -0.09467686 -5.84196899e-03
158 1 12.47988582 0.00047081 -0.09207488 -5.89327746e-03
159 1 12.60219875 0.00047618 -0.08944415 -4.96011300e-03
160 1 12.72449552 0.00047583 -0.08680867 -6.65158567e-03
161 1 12.84679375 0.00047794 -0.08415114 -4.90989307e-03
162 1 12.96910775 0.00047568 -0.08149388 -5.52395043e-03
163 1 13.09140972 0.00048521 -0.07881298 -5.87068470e-03
164 1 13.21370590 0.00048402 -0.07612093 -4.88602194e-03
165 1 13.33599938 0.00048924 -0.07341092 -6.40279006e-03
166 1 13.45829525 0.00048498 -0.07069088 -5.12407601e-03
167 1 13.58059023 0.00047947 -0.06794995 -4.88216806e-03
168 1 13.70288434 0.00047458 -0.06520032 -6.38017819e-03
169 1 13.82517633 0.00049033 -0.06243535 -5.11373203e-03
170 1 13.94746857 0.00048343 -0.05965525 -4.85398664e-03
171 1 14.06976687 0.00048069 -0.05686164 -6.35577596e-03
172 1 14.19205087 0.00049394 -0.05404837 -5.10698016e-03
173 1 14.31434831 0.00047944 -0.05123454 -4.85870271e-03
174 1 14.43663734 0.00048115 -0.04838639 -6.37702085e-03
175 1 14.55892750 0.00046617 -0.04554240 -5.10092274e-03
176 1 14.68121526 0.00047197 -0.04268137 -4.84968636e-03
177 1 14.80349669 0.00047486 -0.03980173 -6.37599125e-03
178 1 14.92578646 0.00047553 -0.03691458 -4.87710407e-03
179 1 15.04807700 0.00047801 -0.03401133 -5.56677439e-03
180 1 15.17036871 0.00046484 -0.03110069 -5.93477518e-03
181 1 15.29265643 0.00047272 -0.02817110 -6.09206826e-03
182 1 15.41494419 0.00046541 -0.02523191 -6.09206826e-03
183 1 15.53722626 0.00046806 -0.02228096 -5.98211588e-03
184 1 15.65950620 0.00046352 -0.01931610 -5.88223740e-03
185 1 15.78179320 0.00046680 -0.01633169 -5.93479953e-03
186 1 15.90407914 0.00044785 -0.01333798 -4.77734034e-03
187 1 16.02635501 0.00044861 -0.01033449 -6.31776323e-03
188 1 16.14863334 0.00045470 -0.00732535 -4.85845554e-03
189 1 16.27091693 0.00045469 -0.00429833 -5.48045656e-03
190 1 16.39319519 0.00044817 -0.00126077 -5.74774533e-03
191 1 16.51546647 0.00044045 0.00179211 -5.91938606e-03
192 1 16.63774981 0.00043379 0.00486321 -4.72601755e-03
193 1 16.76002989 0.00043772 0.00793982 -6.44309587e-03
194 1 16.88229883 0.00043521 0.01102349 -5.21392668e-03
195 1 17.00457265 0.00043049 0.01410966 -4.32492230e-03
196 1 17.12684809 0.00042460 0.01721469 -6.11554878e-03
197 1 17.24911788 0.00041988 0.02033597 -5.20526136e-03
198 1 17.37140064 0.00041817 0.02346277 -4.31230685e-03
199 1 17.49366522 0.00041264 0.02659648 -6.11716232e-03
200 1 17.61593171 0.00041976 0.02975281 -5.69773107e-03
201 1 17.73820499 0.00040576 0.03291244 -5.99314584e-03
202 1 17.86047850 0.00040777 0.03608277 -4.76350900e-03
203 1 17.98274454 0.00040056 0.03927210 -5.21120302e-03
204 1 18.10501537 0.00039828 0.04246035 -6.01204532e-03
205 1 18.22727715 0.00039120 0.04566056 -5.73233737e-03
206 1 18.34954945 0.00037588 0.04887248 -5.81943467e-03
207 1 18.47180967 0.00037739 0.05209660 -6.32655047e-03
208 1 18.59408282 0.00036855 0.05532842 -5.03614005e-03
209 1 18.71634345 0.00036218 0.05856115 -4.70280803e-03
210 1 18.83860374 0.00035598 0.06181734 -8.65683464e-03
211 1 18.96086845 0.00035760 0.06507471 -5.94692004e-03
212 1 19.08312513 0.00035278 0.06834740 -5.65885778e-03
213 1 19.20539292 0.00034730 0.07161809 -5.99277035e-03
214 1 19.32765184 0.00033531 0.07490581 -6.04066598e-03
215 1 19.44990604 0.00032631 0.07819703 -6.09206826e-03
216 1 19.57217196 0.00033254 0.08150243 -6.09206826e-03
217 1 19.69442443 0.00032681 0.08481204 -6.09206826e-03
218 1 19.81668418 0.00031250 0.08812691 -5.94140402e-03
219 1 19.93893968 0.00030361 0.09145125 -6.09135703e-03
220 1 20.06119415 0.00030004 0.09478373 -6.09135703e-03
221 1 20.18345436 0.00029287 0.09812279 -6.09206826e-03
222 1 20.30570819 0.00028602 0.10146970 -6.22362401e-03
223 1 20.42795654 0.00028687 0.10482388 -6.30618064e-03
224 1 20.55021137 0.00027642 0.10818415 -6.16079228e-03
225 1 20.67246306 0.00026614 0.11154958 -6.90076158e-03
226 1 20.79471231 0.00026018 0.11492397 -7.19612184e-03
227 1 20.91696533 0.00025340 0.11830251 -6.17999120e-03
228 1 21.03921574 0.00025052 0.12168978 -5.85545161e-03
229 1 21.16146420 0.00024282 0.12508105 -6.04373412e-03
230 1 21.28371599 0.00024000 0.12848307 -6.05837687e-03
231 1 21.40596617 0.00022913 0.13188852 -6.22625934e-03
232 1 21.52821115 0.00021858 0.13529997 -6.96326852e-03
233 1 21.65046061 0.00021183 0.13871460 -6.60839364e-03
234 1 21.77270398 0.00020768 0.14214139 -6.08325267e-03
235 1 21.89494792 0.00020035 0.14557543 -5.98999100e-03
236 1 22.01719377 0.00019547 0.14901025 -6.02220795e-03
237 1 22.13943826 0.00018351 0.15245215 -5.94934321e-03
238 1 22.26168208 0.00017502 0.15589893 -6.23085673e-03
239 1 22.38392189 0.00016851 0.15934983 -5.91383044e-03
240 1 22.50616680 0.00016348 0.16280409 -5.82022831e-03
241 1 22.62840592 0.00015356 0.16626231 -6.06616825e-03
242 1 22.75064834 0.00014145 0.16972889 -6.09206826e-03
243 1 22.87288522 0.00013535 0.17319770 -6.22108889e-03
244 1 22.99512418 0.00013422 0.17666815 -6.93510095e-03
245 1 23.11736110 0.00012762 0.18014671 -6.55067958e-03
246 1 23.23960156 0.00011857 0.18362409 -5.44215936e-03
247 1 23.36183579 0.00011275 0.18710736 -5.52453627e-03
248 1 23.48407396 0.00010804 0.19059419 -6.11677386e-03
249 1 23.60630685 0.00009923 0.19408354 -5.40422112e-03
250 1 23.72854314 0.00008843 0.19757718 -5.51625079e-03
251 1 23.85077863 0.00008028 0.20107505 -6.10817079e-03
252 1 23.97301222 0.00007155 0.20457518 -5.39058303e-03
253 1 24.09524473 0.00006467 0.20807796 -5.51111698e-03
254 1 24.21747855 0.00005476 0.21158214 -6.09959331e-03
255 1 24.33970997 0.00004629 0.21508809 -5.37708140e-03
256 1 24.46194160 0.00004258 0.21859746 -5.50601994e-03
257 1 24.58417225 0.00003387 0.22210695 -6.09132348e-03
258 1 24.70640231 0.00002492 0.22561943 -5.36406280e-03
259 1 24.82863198 0.00001808 0.22913445 -5.50114066e-03
260 1 24.95085966 0.00000975 0.23265039 -6.07613573e-03
261 1 25.07308805 0.00000218 0.23616740 -5.86576563e-03
262 1 25.19531527 -0.00000675 0.23968540 -5.87763703e-03
263 1 25.31754312 -0.00001452 0.24320382 -5.79509293e-03
264 1 25.43976908 -0.00002212 0.24672352 -6.45795830e-03
265 1 25.56199521 -0.00003013 0.25024352 -6.36067877e-03
266 1 25.68422038 -0.00003764 0.25376361 -5.01672083e-03
267 1 0.12226756 -0.00003696 0.24520364 4.80862070e-03
268 1 0.24452711 -0.00006907 0.24518983 5.62714142e-03
269 1 0.36679036 -0.00005594 0.24520984 6.00619986e-03
270 1 0.48904829 -0.00005481 0.24531732 6.09052560e-03
271 1 0.61127110 -0.00008894 0.24542564 6.09206826e-03
272 1 0.73352499 -0.00011446 0.24557097 5.94781856e-03
273 1 0.85577634 -0.00012457 0.24578206 5.82025544e-03
274 1 0.97799997 -0.00009592 0.24599996 5.95871849e-03
275 1 1.10022858 -0.00009825 0.24628431 6.09232315e-03
276 1 1.22247711 -0.00010991 0.24662657 6.09205550e-03
277 1 1.34471505 -0.00009474 0.24696158 6.08598370e-03
278 1 1.46696853 -0.00011490 0.24733650 6.07933546e-03
279 1 1.58922679 -0.00012753 0.24778285 6.08488133e-03
280 1 1.71144531 -0.00012373 0.24824337 6.08161608e-03
281 1 1.83369186 -0.00014782 0.24876696 6.08881076e-03
282 1 1.95595552 -0.00016140 0.24932370 6.09207793e-03
283 1 2.07815376 -0.00015328 0.24989997 6.09206431e-03
284 1 2.20041708 -0.00013043 0.25052178 6.09206920e-03
285 1 2.32266755 -0.00014456 0.25120448 6.09206749e-03
286 1 2.44493010 -0.00014311 0.25191286 6.09206826e-03
287 1 2.56718588 -0.00013748 0.25262990 6.09206901e-03
288 1 2.68944926 -0.00014923 0.25341603 6.08547783e-03
289 1 2.81168626 -0.00014113 0.25419775 6.07797420e-03
290 1 2.93393581 -0.00013851 0.25503928 6.08460882e-03
291 1 3.05619251 -0.00012360 0.25589716 6.08123045e-03
292 1 3.17845557 -0.00012115 0.25680678 6.08867780e-03
293 1 3.30068626 -0.00012731 0.25772350 6.09206866e-03
294 1 3.42293607 -0.00015321 0.25868061 6.09206839e-03
295 1 3.54518708 -0.00013428 0.25967343 6.09206833e-03
296 1 3.66744306 -0.00014375 0.26069339 6.09206826e-03
297 1 3.78971228 -0.00015618 0.26174869 6.09206824e-03
298 1 3.91195106 -0.00016689 0.26281901 6.09206825e-03
299 1 4.03420918 -0.00016206 0.26393036 6.10477040e-03
300 1 4.15644690 -0.00014650 0.26506211 6.10144793e-03
301 1 4.27871832 -0.00014197 0.26622486 6.09206826e-03
302 1 4.40098344 -0.00013906 0.26741050 6.08473760e-03
303 1 4.52324490 -0.00016096 0.26859402 6.07718969e-03
304 1 4.64551183 -0.00018956 0.26982897 6.08430762e-03
305 1 4.76776037 -0.00015202 0.27110434 6.08084602e-03
306 1 4.89001392 -0.00016281 0.27239961 6.08857506e-03
307 1 5.01226567 -0.00018237 0.27373705 6.09439460e-03
308 1 5.13452232 -0.00019189 0.27509462 6.09360296e-03
309 1 5.25676588 -0.00015961 0.27646653 6.10212083e-03
310 1 5.37900624 -0.00016900 0.27787680 6.09455787e-03
311 1 5.50126820 -0.00017205 0.27931175 6.08457013e-03
312 1 5.62352931 -0.00015869 0.28077186 6.08334006e-03
313 1 5.74577194 -0.00016200 0.28225659 6.09025173e-03
314 1 5.86802825 -0.00017641 0.28376487 6.09206826e-03
315 1 5.99029886 -0.00018428 0.28530387 6.09206826e-03
316 1 6.11254312 -0.00018231 0.28685921 6.08838437e-03
317 1 6.23479341 -0.00016893 0.28846414 6.09329454e-03
318 1 6.35703045 -0.00020578 0.29008854 6.09400483e-03
319 1 6.47929031 -0.00020663 0.29172140 6.08872179e-03
320 1 6.60155223 -0.00020537 0.29337239 6.08812243e-03
321 1 6.72379431 -0.00019581 0.29503818 6.09206826e-03
322 1 6.84604815 -0.00020395 0.29675763 6.09206826e-03
323 1 6.96830570 -0.00018795 0.29850671 6.09206826e-03
324 1 7.09054707 -0.00019382 0.30026986 6.06302327e-03
325 1 7.21279304 -0.00018750 0.30206019 6.06302327e-03
326 1 7.33503998 -0.00018611 0.30386896 5.90236529e-03
327 1 7.45730188 -0.00017954 0.30571051 5.81608564e-03
328 1 7.57956578 -0.00016299 0.30756520 6.10035823e-03
329 1 7.70181342 -0.00017830 0.30944284 5.08741347e-03
330 1 7.82408214 -0.00018998 0.31131274 6.88423117e-03
331 1 7.94632736 -0.00017979 0.31324365 4.95164977e-03
332 1 8.06855954 -0.00017683 0.31516614 5.63292633e-03
333 1 8.19081158 -0.00018816 0.31712869 5.95654755e-03
334 1 8.31306521 -0.00019050 0.31910588 6.00432988e-03
335 1 8.43531591 -0.00018380 0.32110466 6.08757506e-03
336 1 8.55756650 -0.00018310 0.32312436 5.05700823e-03
337 1 8.67982361 -0.00020051 0.32515028 6.83715280e-03
338 1 8.80206971 -0.00018965 0.32719514 4.93632937e-03
339 1 8.92432803 -0.00020201 0.32928256 5.62467055e-03
340 1 9.04657033 -0.00021487 0.33137321 5.95386311e-03
341 1 9.16880705 -0.00021225 0.33349910 6.00199927e-03
342 1 9.29106561 -0.00021556 0.33563971 6.06987486e-03
343 1 9.41329682 -0.00022149 0.33779635 5.01509653e-03
344 1 9.53555451 -0.00021792 0.33996473 6.78511241e-03
345 1 9.65780030 -0.00022697 0.34215998 4.92113473e-03
346 1 9.78005037 -0.00023196 0.34439044 5.61645056e-03
347 1 9.90228742 -0.00021911 0.34663977 5.95118153e-03
348 1 10.02453654 -0.00022904 0.34889345 6.09206826e-03
349 1 10.14677393 -0.00022396 0.35118730 6.09206826e-03
350 1 10.26901774 -0.00023249 0.35347641 6.09206826e-03
351 1 10.39127592 -0.00023197 0.35579143 6.50085567e-03
352 1 10.51352344 -0.00023865 0.35811824 6.38496347e-03
353 1 10.63577952 -0.00024326 0.36046338 5.77251663e-03
354 1 10.75801981 -0.00024739 0.36282524 5.73476969e-03
355 1 10.88027380 -0.00025502 0.36520312 5.94888879e-03
356 1 11.00251948 -0.00027299 0.36759985 6.09206826e-03
357 1 11.12475738 -0.00026001 0.37001432 6.09206826e-03
358 1 11.24700534 -0.00026601 0.37245511 6.09206826e-03
359 1 11.36924433 -0.00027715 0.37491120 6.09206826e-03
360 1 11.49147550 -0.00026940 0.37739667 4.98457375e-03
361 1 11.61373048 -0.00027141 0.37988539 6.69756871e-03
362 1 11.73598250 -0.00026895 0.38239113 5.15375987e-03
363 1 11.85821730 -0.00027345 0.38491164 4.95985007e-03
364 1 11.98045807 -0.00027968 0.38744191 6.48212442e-03
365 1 12.10270657 -0.00028597 0.39000418 5.14927068e-03
366 1 12.22494615 -0.00027740 0.39257407 4.95341033e-03
367 1 12.34718867 -0.00029849 0.39517092 6.46347279e-03
368 1 12.46942300 -0.00028071 0.39776430 5.14043101e-03
369 1 12.59165870 -0.00029604 0.40039263 4.91020010e-03
370 1 12.71391271 -0.00029096 0.40302100 6.45556760e-03
371 1 12.83615867 -0.00029217 0.40567245 4.90989307e-03
372 1 12.95840040 -0.00030034 0.40834080 5.52395043e-03
373 1 13.08063999 -0.00029427 0.41101840 5.87068470e-03
374 1 13.20287220 -0.00029602 0.41371632 4.87920209e-03
375 1 13.32511315 -0.00030770 0.41642054 6.41661913e-03
376 1 13.44734984 -0.00030800 0.41914466 4.89988333e-03
377 1 13.56959433 -0.00030538 0.42187693 5.51681014e-03
378 1 13.69183728 -0.00030703 0.42462886 5.85936171e-03
379 1 13.81406618 -0.00031621 0.42740031 4.85938456e-03
380 1 13.93630220 -0.00031508 0.43017171 6.38254444e-03
381 1 14.05854412 -0.00032685 0.43295996 4.88995824e-03
382 1 14.18078270 -0.00032733 0.43577357 5.57476230e-03
383 1 14.30301660 -0.00031236 0.43859689 5.93743790e-03
384 1 14.42524566 -0.00033316 0.44143386 5.98766457e-03
385 1 14.54747995 -0.00033184 0.44427533 5.96043235e-03
386 1 14.66971569 -0.00032658 0.44714344 4.81637844e-03
387 1 14.79196049 -0.00033256 0.45002809 6.34214196e-03
388 1 14.91419838 -0.00033153 0.45290598 4.87620659e-03
389 1 15.03643446 -0.00033313 0.45580341 5.56677439e-03
390 1 15.15866867 -0.00034648 0.45871156 5.93477518e-03
391 1 15.28089620 -0.00035001 0.46163736 5.98532808e-03
392 1 15.40313168 -0.00034625 0.46457829 5.94249673e-03
393 1 15.52536218 -0.00035856 0.46752981 4.79106117e-03
394 1 15.64759447 -0.00036870 0.47050063 6.34873408e-03
395 1 15.76982041 -0.00035466 0.47348057 5.10720957e-03
396 1 15.89205208 -0.00036952 0.47647656 4.79385489e-03
397 1 16.01428789 -0.00038372 0.47947541 6.33054845e-03
398 1 16.13652768 -0.00039082 0.48249265 5.10009402e-03
399 1 16.25874933 -0.00039265 0.48551769 4.78369059e-03
400 1 16.38098970 -0.00038861 0.48855188 6.31203828e-03
401 1 16.50322068 -0.00039275 0.49159876 5.09300092e-03
402 1 16.62544339 -0.00039153 0.49466025 4.74903927e-03
403 1 16.74767384 -0.00039624 0.49774062 6.32830758e-03
404 1 16.86991233 -0.00039979 0.50081972 5.08343922e-03
405 1 16.99214581 -0.00040631 0.50392344 4.32591159e-03
406 1 17.11437212 -0.00042173 0.50702324 6.00104739e-03
407 1 17.23660607 -0.00041616 0.51014260 5.21119202e-03
408 1 17.35882338 -0.00043207 0.51326754 6.09206826e-03
409 1 17.48105825 -0.00044074 0.51640407 6.05153388e-03
410 1 17.60328051 -0.00043935 0.51955086 5.91774538e-03
411 1 17.72551441 -0.00044941 0.52270908 6.22305381e-03
412 1 17.84774570 -0.00044837 0.52588669 5.03791106e-03
413 1 17.96997123 -0.00045690 0.52906966 4.72607940e-03
414 1 18.09220337 -0.00045857 0.53225855 8.71836332e-03
415 1 18.21443266 -0.00047256 0.53546009 5.95355142e-03
416 1 18.33666005 -0.00047177 0.53866951 5.36960420e-03
417 1 18.45888702 -0.00048868 0.54189052 6.03255871e-03
418 1 18.58111248 -0.00049099 0.54511646 5.00245570e-03
419 1 18.70333282 -0.00050072 0.54835463 4.70280803e-03
420 1 18.82556130 -0.00049707 0.55160652 8.65685956e-03
421 1 18.94778716 -0.00050299 0.55487042 5.94692135e-03
422 1 19.07001670 -0.00051446 0.55813432 5.65886656e-03
423 1 19.19224666 -0.00051941 0.56141322 5.98663784e-03
424 1 19.31446648 -0.00052446 0.56470260 6.03862808e-03
425 1 19.43669102 -0.00053346 0.56799398 6.08821513e-03
426 1 19.55892182 -0.00053833 0.57129327 6.17296108e-03
427 1 19.68115179 -0.00054600 0.57460435 6.04911048e-03
428 1 19.80337633 -0.00054434 0.57791866 6.99423467e-03
429 1 19.92560347 -0.00054891 0.58124324 6.49916941e-03
430 1 20.04783047 -0.00055755 0.58457642 6.05139015e-03
431 1 20.17005169 -0.00055944 0.58792291 6.07023001e-03
432 1 20.29227759 -0.00057010 0.59126426 6.06423220e-03
433 1 20.41450375 -0.00057743 0.59461770 6.03339671e-03
434 1 20.53673174 -0.00058734 0.59797376 6.06123277e-03
435 1 20.65895367 -0.00058771 0.60134041 6.05523286e-03
436 1 20.78117834 -0.00059870 0.60471380 6.01539697e-03
437 1 20.90340647 -0.00060100 0.60809454 6.05223237e-03
438 1 21.02563298 -0.00061176 0.61147672 6.04623034e-03
439 1 21.14785037 -0.00061699 0.61486972 5.99739088e-03
440 1 21.27007800 -0.00062406 0.61826986 6.03386113e-03
441 1 21.39230468 -0.00063023 0.62167767 6.06015229e-03
442 1 21.51452469 -0.00063900 0.62508905 6.93292310e-03
443 1 21.63674421 -0.00064332 0.62850853 6.60839364e-03
444 1 21.75896673 -0.00065230 0.63193415 6.08325267e-03
445 1 21.88118930 -0.00065587 0.63536222 5.98999100e-03
446 1 22.00341437 -0.00066182 0.63879838 6.02220795e-03
447 1 22.12563757 -0.00066762 0.64223905 5.94934321e-03
448 1 22.24786093 -0.00067843 0.64568534 6.00521256e-03
449 1 22.37008688 -0.00068322 0.64913931 5.96042100e-03
450 1 22.49230669 -0.00068824 0.65259471 6.01327673e-03
451 1 22.61453149 -0.00069139 0.65605538 6.06616825e-03
452 1 22.73675453 -0.00069983 0.65951907 6.09206826e-03
453 1 22.85897813 -0.00070725 0.66298705 6.22108889e-03
454 1 22.98120263 -0.00071423 0.66645826 6.93510095e-03
455 1 23.10342510 -0.00072032 0.66993443 6.55067958e-03
456 1 23.22564500 -0.00072698 0.67341569 5.44215936e-03
457 1 23.34786879 -0.00073555 0.67689686 5.52453627e-03
458 1 23.47009296 -0.00074031 0.68038320 6.09206826e-03
459 1 23.59231549 -0.00074587 0.68387461 5.52769247e-03
460 1 23.71453826 -0.00075315 0.68736746 5.54504444e-03
461 1 23.83676224 -0.00075860 0.69086596 6.09206826e-03
462 1 23.95898273 -0.00076649 0.69436625 5.52433613e-03
463 1 24.08120749 -0.00077264 0.69786832 5.54169116e-03
464 1 24.20342975 -0.00077609 0.70137268 6.09959331e-03
465 1 24.32565269 -0.00078412 0.70487998 5.37708140e-03
466 1 24.44787700 -0.00079029 0.70838889 5.50601994e-03
467 1 24.57010083 -0.00079665 0.71190027 6.09132348e-03
468 1 24.69232309 -0.00080286 0.71541385 5.36406280e-03
469 1 24.81454683 -0.00080925 0.71892850 5.50114066e-03
470 1 24.93676949 -0.00081501 0.72244379 6.07613573e-03
471 1 25.05899412 -0.00082218 0.72596116 5.86576563e-03
472 1 25.18121738 -0.00082809 0.72947964 5.87763704e-03
473 1 25.30344068 -0.00083435 0.73299855 5.79509293e-03
474 1 25.42566471 -0.00084124 0.73651864 6.45795830e-03
475 1 25.54788830 -0.00084761 0.74003883 6.36067877e-03
476 1 25.67011212 -0.00085410 0.74355953 5.01672083e-03
477 1 0.12235055 1.20987578 -0.24469411 -5.06599779e-03
478 1 0.24469631 1.20980903 -0.24468150 -5.96099493e-03
479 1 0.36707483 1.20972134 -0.24461288 -6.06828787e-03
480 1 0.48946733 1.20972744 -0.24452992 -6.09081051e-03
481 1 0.61185434 1.20971785 -0.24438591 -6.09597885e-03
482 1 0.73424096 1.20972570 -0.24422031 -6.09677124e-03
483 1 0.85666482 1.20968862 -0.24400004 -6.09261604e-03
484 1 0.97906163 1.20971144 -0.24375273 -6.09210769e-03
485 1 1.10148409 1.20968159 -0.24342660 -6.09159289e-03
486 1 1.22386752 1.20968092 -0.24308850 -6.09258964e-03
487 1 1.34626760 1.20974293 -0.24274403 -6.11404233e-03
488 1 1.46865466 1.20975139 -0.24232298 -6.12924398e-03
489 1 1.59103266 1.20970902 -0.24187214 -6.13810471e-03
490 1 1.71342255 1.20971381 -0.24139650 -6.10740278e-03
491 1 1.83582487 1.20970215 -0.24086895 -6.11299929e-03
492 1 1.95822909 1.20971382 -0.24027036 -6.11651709e-03
493 1 2.08061370 1.20969555 -0.23970386 -6.10892752e-03
494 1 2.20300710 1.20974920 -0.23906915 -6.08383817e-03
495 1 2.32541485 1.20976606 -0.23838436 -6.07811671e-03
496 1 2.44779388 1.20975003 -0.23765492 -6.12167487e-03
497 1 2.57016115 1.20972337 -0.23692311 -6.12891596e-03
498 1 2.69254979 1.20975319 -0.23616155 -6.13439434e-03
499 1 2.81495489 1.20977575 -0.23533905 -6.11877956e-03
500 1 2.93733945 1.20974454 -0.23448661 -6.09486572e-03
501 1 3.05971837 1.20977034 -0.23360817 -6.09206826e-03
502 1 3.18212621 1.20976620 -0.23269511 -6.09206855e-03
503 1 3.30449885 1.20976601 -0.23174161 -6.09206932e-03
504 1 3.42685336 1.20977027 -0.23075581 -6.11378764e-03
505 1 3.54926929 1.20981514 -0.22975257 -6.10132488e-03
506 1 3.67161865 1.20982750 -0.22870684 -6.14015253e-03
507 1 3.79398522 1.20980796 -0.22765505 -6.18862768e-03
508 1 3.91634211 1.20983539 -0.22653149 -6.20494803e-03
509 1 4.03870341 1.20983444 -0.22542603 -6.16689241e-03
510 1 4.16105797 1.20983403 -0.22426448 -6.13536340e-03
511 1 4.28342294 1.20982300 -0.22309853 -6.09206826e-03
512 1 4.40578184 1.20981685 -0.22190041 -6.09528258e-03
513 1 4.52815381 1.20984115 -0.22068672 -6.10197805e-03
514 1 4.65053096 1.20982985 -0.21943748 -6.09705471e-03
515 1 4.77288659 1.20984801 -0.21815213 -6.06436498e-03
516 1 4.89527259 1.20983030 -0.21682660 -6.12133674e-03
517 1 5.01761914 1.20985131 -0.21549681 -6.20974613e-03
518 1 5.13997905 1.20987203 -0.21413308 -6.24802334e-03
519 1 5.26232770 1.20988130 -0.21273511 -6.19819175e-03
520 1 5.38469919 1.20985069 -0.21131746 -6.15088270e-03
521 1 5.50707217 1.20986526 -0.20987181 -6.13301438e-03
522 1 5.62942492 1.20989851 -0.20839496 -6.10131989e-03
523 1 5.75179667 1.20989476 -0.20689267 -6.05757291e-03
524 1 5.87415113 1.20991690 -0.20536570 -6.04491082e-03
525 1 5.99649351 1.20990770 -0.20379266 -6.05437557e-03
526 1 6.11885853 1.20993552 -0.20221912 -6.06489385e-03
527 1 6.24120169 1.20994990 -0.20061472 -6.09206826e-03
528 1 6.36355048 1.20996630 -0.19897974 -6.09206826e-03
529 1 6.48590845 1.20994134 -0.19732685 -6.09979510e-03
530 1 6.60825195 1.20994976 -0.19564357 -6.12512692e-03
531 1 6.73060280 1.20997154 -0.19394454 -6.16578501e-03
532 1 6.85295335 1.20995402 -0.19219801 -6.26929389e-03
533 1 6.97527703 1.20996202 -0.19044990 -6.28695529e-03
534 1 7.09763425 1.20999275 -0.18869731 -6.28583704e-03
535 1 7.21997399 1.20998214 -0.18690179 -6.23881179e-03