ITEM: TIMESTEP
0
ITEM: NUMBER OF ATOMS
10710
ITEM: BOX BOUNDS ff ff ff
-2.0 24.983753993522964
-2.0088597289162347 3.500564278891927
-2.246157540919368 13.717545634261734
ITEM: ATOMS id type x y z q
1 2 0.00000000 0.00000000 0.24527477 3.35542180e-03
2 2 0.00000000 0.00000000 -0.24472523 -3.35542180e-03
3 2 0.00000000 1.21000000 0.24527477 3.41686920e-03
4 2 0.00000000 1.21000000 -0.24472523 -3.41686920e-03
5 1 22.73893003 0.27110156 11.68237662 3.37776783e-03
6 1 22.98375399 0.29197983 11.25816152 -3.37776783e-03
7 1 22.69635965 1.47945842 11.71754563 3.41686920e-03
8 1 22.94113298 1.50056428 11.29332795 -3.41686920e-03
9 2 0.00000000 0.00000000 -0.12222523 0.00000000e+00
10 2 0.00000000 0.00000000 0.00027477 0.00000000e+00
11 2 0.00000000 0.00000000 0.12277477 0.00000000e+00
12 2 0.00000000 0.12100000 0.24527477 5.18139194e-03
13 2 0.00000000 0.24200000 0.24527477 5.50362000e-03
14 2 0.00000000 0.36300000 0.24527477 5.01501884e-03
15 2 0.00000000 0.48400000 0.24527477 5.50904170e-03
16 2 0.00000000 0.60500000 0.24527477 6.02408537e-03
17 2 0.00000000 0.72600000 0.24527477 6.86123120e-03
18 2 0.00000000 0.84700000 0.24527477 6.83241897e-03
19 2 0.00000000 0.96800000 0.24527477 5.84994208e-03
20 2 0.00000000 1.08900000 0.24527477 4.96878236e-03
21 2 0.00000000 1.21000000 -0.12222523 0.00000000e+00
22 2 0.00000000 1.21000000 0.00027477 0.00000000e+00
23 2 0.00000000 1.21000000 0.12277477 0.00000000e+00
24 2 0.00000000 0.12100000 -0.24472523 -5.18139194e-03
25 2 0.00000000 0.24200000 -0.24472523 -5.50362000e-03
26 2 0.00000000 0.36300000 -0.24472523 -5.01501884e-03
27 2 0.00000000 0.48400000 -0.24472523 -5.50904170e-03
28 2 0.00000000 0.60500000 -0.24472523 -6.02408537e-03
29 2 0.00000000 0.72600000 -0.24472523 -6.86123120e-03
30 2 0.00000000 0.84700000 -0.24472523 -6.83241897e-03
31 2 0.00000000 0.96800000 -0.24472523 -5.84994208e-03
32 2 0.00000000 1.08900000 -0.24472523 -4.96878236e-03
33 1 22.92254108 0.28675634 11.36422329 0.00000000e+00
34 1 22.86133325 0.28153395 11.47027119 0.00000000e+00
35 1 22.80012745 0.27631666 11.57631899 0.00000000e+00
36 1 22.73468093 0.39194383 11.68587321 5.05002864e-03
37 1 22.73043742 0.51278080 11.68937314 5.64089052e-03
38 1 22.72619161 0.63362011 11.69287174 5.44128437e-03
39 1 22.72195955 0.75445688 11.69638095 6.40224548e-03
40 1 22.71768746 0.87528705 11.69988630 6.88148315e-03
41 1 22.71343341 0.99611913 11.70339821 6.11583422e-03
42 1 22.70916679 1.11695650 11.70692541 5.69198232e-03
43 1 22.70488452 1.23779851 11.71046936 6.01735171e-03
44 1 22.70061509 1.35862811 11.71400294 5.43527194e-03
45 1 22.87993567 1.49528798 11.39938720 0.00000000e+00
46 1 22.81873709 1.49001368 11.50543155 0.00000000e+00
47 1 22.75754166 1.48473736 11.61148194 0.00000000e+00
48 1 22.97950256 0.41282949 11.26166646 -5.05002864e-03
49 1 22.97525153 0.53368945 11.26517653 -5.64089052e-03
50 1 22.97100032 0.65454202 11.26865831 -5.44128437e-03
51 1 22.96674964 0.77540256 11.27215436 -6.40224548e-03
52 1 22.96249365 0.89626544 11.27566761 -6.88148315e-03
53 1 22.95822878 1.01713395 11.27920955 -6.11583422e-03
54 1 22.95395849 1.13800278 11.28271959 -5.69198232e-03
55 1 22.94968329 1.25886193 11.28625763 -6.01735171e-03
56 1 22.94541641 1.37971321 11.28979913 -5.43527194e-03
57 1 0.12426874 0.00394363 -0.24615754 -4.80862070e-03
58 1 0.24905695 0.00700396 -0.24491333 -5.62714142e-03
59 1 0.37395828 0.00748435 -0.24289068 -6.00619986e-03
60 1 0.49987862 0.00741052 -0.23953842 -6.09052560e-03
61 1 0.62499672 0.00762596 -0.23443181 -6.09206826e-03
62 1 0.75025146 0.00916093 -0.22787545 -5.94781856e-03
63 1 0.87520396 0.01070366 -0.22008647 -5.82025544e-03
64 1 0.99981153 0.00982364 -0.20814853 -5.95871849e-03
65 1 1.12598001 0.01025448 -0.19658600 -6.09232315e-03
66 1 1.25108689 0.00983005 -0.18402546 -6.09205550e-03
67 1 1.37530669 0.01048014 -0.16920221 -6.08598370e-03
68 1 1.49953249 0.01188046 -0.15129496 -6.07933546e-03
69 1 1.62348584 0.01239155 -0.13466772 -6.08488133e-03
70 1 1.74711811 0.01253553 -0.11539942 -6.08161608e-03
71 1 1.87029638 0.01286981 -0.09497762 -6.08881076e-03
72 1 1.99458328 0.01289351 -0.07264945 -6.09207793e-03
73 1 2.11793812 0.01350725 -0.04960469 -6.09206431e-03
74 1 2.24083235 0.01489402 -0.02414484 -6.09206920e-03
75 1 2.36343322 0.01514425 0.00178222 -6.09206749e-03
76 1 2.48522994 0.01515924 0.02881587 -6.09206826e-03
77 1 2.60655772 0.01563207 0.05687285 -6.09206901e-03
78 1 2.72829569 0.01496495 0.08588125 -6.08547783e-03
79 1 2.84923597 0.01590515 0.11607116 -6.07797420e-03
80 1 2.96985297 0.01769456 0.14753381 -6.08460882e-03
81 1 3.09032341 0.01756977 0.17981218 -6.08123045e-03
82 1 3.21010242 0.01843095 0.21354054 -6.08867780e-03
83 1 3.32941424 0.01922426 0.24820638 -6.09206866e-03
84 1 3.44892153 0.01994641 0.28409519 -6.09206839e-03
85 1 3.56772373 0.01996224 0.32019079 -6.09206833e-03
86 1 3.68656055 0.02005132 0.35777537 -6.09206826e-03
87 1 3.80532026 0.02155637 0.39620313 -6.09206824e-03
88 1 3.92331036 0.02247785 0.43498167 -6.09206825e-03
89 1 4.04129022 0.02241832 0.47435007 -6.10477040e-03
90 1 4.15883957 0.02384913 0.51477657 -6.10144793e-03
91 1 4.27550230 0.02455208 0.55608285 -6.09206826e-03
92 1 4.39281337 0.02508933 0.59781436 -6.08473760e-03
93 1 4.50892279 0.02577200 0.64029352 -6.07718969e-03
94 1 4.62503217 0.02690634 0.68390190 -6.08430762e-03
95 1 4.74084536 0.02806929 0.72779473 -6.08084602e-03
96 1 4.85675897 0.02869604 0.77213095 -6.08857506e-03
97 1 4.97234743 0.03020615 0.81770577 -6.09439460e-03
98 1 5.08756126 0.03051902 0.86385500 -6.09360296e-03
99 1 5.20206723 0.03153655 0.91117539 -6.10212083e-03
100 1 5.31677784 0.03213728 0.95854688 -6.09455787e-03
101 1 5.43069058 0.03371890 1.00633200 -6.08457013e-03
102 1 5.54440451 0.03446226 1.05493760 -6.08334006e-03
103 1 5.65844244 0.03522723 1.10472069 -6.09025173e-03
104 1 5.77138459 0.03617446 1.15445763 -6.09206826e-03
105 1 5.88439050 0.03714288 1.20469926 -6.09206826e-03
106 1 5.99703469 0.03861246 1.25564474 -6.08838437e-03
107 1 6.10925443 0.03959539 1.30697218 -6.09329454e-03
108 1 6.22189936 0.04012427 1.35882816 -6.09400483e-03
109 1 6.33390759 0.04143774 1.41124639 -6.08872179e-03
110 1 6.44570661 0.04275218 1.46462242 -6.08812243e-03
111 1 6.55676898 0.04382487 1.51805283 -6.09206826e-03
112 1 6.66813478 0.04481209 1.57168272 -6.09206826e-03
113 1 6.77888254 0.04581803 1.62568837 -6.09206826e-03
114 1 6.88916644 0.04709193 1.68061246 -6.06302327e-03
115 1 6.99963306 0.04766498 1.73580892 -6.06302327e-03
116 1 7.10989881 0.04878553 1.79163909 -5.90236529e-03
117 1 7.21967324 0.04997876 1.84777873 -5.81608564e-03
118 1 7.32930603 0.05109334 1.90406471 -6.10035823e-03
119 1 7.43884841 0.05216070 1.96083503 -5.08741334e-03
120 1 7.54798951 0.05321298 2.01785546 -6.87719096e-03
121 1 7.65683691 0.05449461 2.07515963 -5.18694999e-03
122 1 7.76607183 0.05529994 2.13274497 -5.00655937e-03
123 1 7.87455422 0.05653407 2.19079715 -7.17602109e-03
124 1 7.98300906 0.05797255 2.24911363 -5.64123658e-03
125 1 8.09161693 0.05921751 2.30776579 -5.91249038e-03
126 1 8.19957522 0.06024221 2.36653031 -5.77202514e-03
127 1 8.30747656 0.06144555 2.42557302 -5.95689302e-03
128 1 8.41545008 0.06279771 2.48497867 -6.09206826e-03
129 1 8.52309620 0.06370299 2.54472230 -6.09206826e-03
130 1 8.63049491 0.06491696 2.60458949 -6.09206826e-03
131 1 8.73776771 0.06621360 2.66464029 -6.00199927e-03
132 1 8.84505599 0.06782044 2.72501859 -6.06987486e-03
133 1 8.95212495 0.06908616 2.78566765 -5.02835518e-03
134 1 9.05896121 0.07025461 2.84649377 -6.79157831e-03
135 1 9.16545333 0.07173176 2.90765854 -4.92113473e-03
136 1 9.27214734 0.07277489 2.96897757 -5.56259368e-03
137 1 9.37862760 0.07386631 3.03063956 -5.94323360e-03
138 1 9.48488052 0.07532677 3.09261244 -5.00637084e-03
139 1 9.59087311 0.07645952 3.15440754 -6.75640181e-03
140 1 9.69683695 0.07755657 3.21646084 -4.91035923e-03
141 1 9.80260321 0.07882215 3.27877714 -5.75765677e-03
142 1 9.90840342 0.08013669 3.34114630 -6.37465021e-03
143 1 10.01409170 0.08158106 3.40364335 -6.33172667e-03
144 1 10.11960345 0.08292530 3.46628291 -5.77695765e-03
145 1 10.22515139 0.08441489 3.52909096 -5.75602868e-03
146 1 10.33054007 0.08567246 3.59197080 -5.94989338e-03
147 1 10.43566687 0.08693797 3.65514521 -6.09206826e-03
148 1 10.54082909 0.08842694 3.71844256 -6.09206826e-03
149 1 10.64588347 0.08964290 3.78188123 -6.49862787e-03
150 1 10.75085843 0.09107202 3.84547997 -6.47806478e-03
151 1 10.85576356 0.09231024 3.90908124 -5.98398651e-03
152 1 10.96059453 0.09375898 3.97289177 -5.97118729e-03
153 1 11.06531669 0.09503525 4.03669584 -6.32827249e-03
154 1 11.16999436 0.09644045 4.10056052 -6.38296841e-03
155 1 11.27460669 0.09795928 4.16455026 -6.09206826e-03
156 1 11.37909413 0.09923191 4.22868141 -5.92176613e-03
157 1 11.48351774 0.10064979 4.29281520 -5.84196899e-03
158 1 11.58783244 0.10204025 4.35699844 -5.89327746e-03
159 1 11.69216796 0.10348961 4.42138576 -4.96011300e-03
160 1 11.79641615 0.10491113 4.48575853 -6.65158567e-03
161 1 11.90061121 0.10634422 4.55023191 -4.90989307e-03
162 1 12.00485836 0.10777552 4.61472024 -5.52395043e-03
163 1 12.10898541 0.10925641 4.67927244 -5.87068470e-03
164 1 12.21304541 0.11069701 4.74385944 -4.88602194e-03
165 1 12.31707072 0.11216866 4.80849541 -6.40279006e-03
166 1 12.42105823 0.11362099 4.87316477 -5.12407601e-03
167 1 12.52501392 0.11508532 4.93787641 -4.88216806e-03
168 1 12.62894829 0.11654259 5.00263380 -6.38017819e-03
169 1 12.73283350 0.11807294 5.06740602 -5.11373203e-03
170 1 12.83669684 0.11956419 5.13219479 -4.85398664e-03
171 1 12.94055688 0.12104424 5.19703029 -6.35577596e-03
172 1 13.04436354 0.12258359 5.26186122 -5.10698016e-03
173 1 13.14819493 0.12406897 5.32670115 -4.85870271e-03
174 1 13.25197382 0.12558772 5.39159517 -6.37702085e-03
175 1 13.35575375 0.12708983 5.45646822 -5.10092274e-03
176 1 13.45951064 0.12863892 5.52135189 -4.84968636e-03
177 1 13.56324380 0.13017107 5.58624998 -6.37599125e-03
178 1 13.66696933 0.13172687 5.65113730 -4.87710407e-03
179 1 13.77069524 0.13327974 5.71601265 -5.56677439e-03
180 1 13.87441448 0.13483923 5.78090280 -5.93477518e-03
181 1 13.97811985 0.13639081 5.84578747 -6.09206826e-03
182 1 14.08183323 0.13797199 5.91064281 -6.09206826e-03
183 1 14.18554267 0.13953613 5.97549067 -5.98211588e-03
184 1 14.28924708 0.14111552 6.04032462 -5.88223740e-03
185 1 14.39296490 0.14270447 6.10514728 -5.93479953e-03
186 1 14.49669804 0.14434789 6.16991889 -4.77734034e-03
187 1 14.60042672 0.14594782 6.23470589 -6.31776323e-03
188 1 14.70415323 0.14755680 6.29944303 -4.85845554e-03
189 1 14.80788065 0.14916348 6.36413473 -5.48045656e-03
190 1 14.91162178 0.15080719 6.42882006 -5.74774533e-03
191 1 15.01540367 0.15245423 6.49347952 -5.91938606e-03
192 1 15.11917350 0.15411540 6.55806718 -4.72601755e-03
193 1 15.22295267 0.15573033 6.62265199 -6.44309587e-03
194 1 15.32680029 0.15739429 6.68721283 -5.21392668e-03
195 1 15.43062058 0.15906527 6.75174611 -4.32492230e-03
196 1 15.53444630 0.16071791 6.81622584 -6.11554878e-03
197 1 15.63832473 0.16238830 6.88065130 -5.20526136e-03
198 1 15.74217040 0.16406051 6.94501269 -4.31230685e-03
199 1 15.84607262 0.16572377 7.00940248 -6.11716232e-03
200 1 15.95002421 0.16737099 7.07369519 -5.69773107e-03
201 1 16.05395914 0.16911714 7.13794978 -5.99314584e-03
202 1 16.15791277 0.17078586 7.20213295 -4.76350900e-03
203 1 16.26194402 0.17254077 7.26623840 -5.21120302e-03
204 1 16.36594116 0.17425797 7.33034615 -6.01204532e-03
205 1 16.47001596 0.17598213 7.39442370 -5.73233737e-03
206 1 16.57408324 0.17773041 7.45840363 -5.81943467e-03
207 1 16.67822750 0.17944611 7.52235721 -6.32655047e-03
208 1 16.78232104 0.18120505 7.58619283 -5.03614005e-03
209 1 16.88647927 0.18294383 7.65007464 -4.70280803e-03
210 1 16.99071060 0.18468167 7.71384787 -8.65683464e-03
211 1 17.09491154 0.18640619 7.77757389 -5.94692004e-03
212 1 17.19924460 0.18819864 7.84118470 -5.65885778e-03
213 1 17.30347856 0.18996663 7.90480724 -5.99277035e-03
214 1 17.40785038 0.19179402 7.96830695 -6.04066598e-03
215 1 17.51224952 0.19360629 8.03180049 -6.09206826e-03
216 1 17.61662097 0.19529528 8.09513463 -6.09206826e-03
217 1 17.72109473 0.19708529 8.15851493 -6.09206826e-03
218 1 17.82553307 0.19894364 8.22182322 -5.94140402e-03
219 1 17.93004370 0.20077665 8.28506976 -6.09135703e-03
220 1 18.03458746 0.20256103 8.34824961 -6.09135703e-03
221 1 18.13912396 0.20435685 8.41135818 -6.09206826e-03
222 1 18.24373024 0.20618896 8.47440920 -6.22362401e-03
223 1 18.34841990 0.20795186 8.53740563 -6.30618064e-03
224 1 18.45307492 0.20983090 8.60033717 -6.16079228e-03
225 1 18.55776943 0.21169309 8.66323949 -6.90076158e-03
226 1 18.66252656 0.21351493 8.72608100 -7.19612184e-03
227 1 18.76727230 0.21534612 8.78885299 -6.17999120e-03
228 1 18.87207442 0.21714975 8.85155100 -5.85545161e-03
229 1 18.97691578 0.21900528 8.91421092 -6.04373412e-03
230 1 19.08177804 0.22079991 8.97675514 -6.05837687e-03
231 1 19.18667549 0.22271418 9.03924494 -6.22625934e-03
232 1 19.29165138 0.22460590 9.10171117 -6.96326852e-03
233 1 19.39658743 0.22646852 9.16411878 -6.60839364e-03
234 1 19.50164470 0.22831175 9.22643082 -6.08325267e-03
235 1 19.60674915 0.23020937 9.28866468 -5.98999100e-03
236 1 19.71183022 0.23205635 9.35087744 -6.02220795e-03
237 1 19.81696754 0.23400310 9.41300785 -5.94934321e-03
238 1 19.92214185 0.23590918 9.47509925 -6.23085673e-03
239 1 20.02737094 0.23779335 9.53717830 -5.91383044e-03
240 1 20.13256851 0.23966590 9.59914803 -5.82022831e-03
241 1 20.23783412 0.24159999 9.66111316 -6.06616825e-03
242 1 20.34312001 0.24356019 9.72296053 -6.09206826e-03
243 1 20.44848287 0.24545110 9.78481366 -6.22108889e-03
244 1 20.55383328 0.24727255 9.84662343 -6.93510095e-03
245 1 20.65925307 0.24918547 9.90835142 -6.55067958e-03
246 1 20.76462805 0.25114217 9.97005710 -5.44215936e-03
247 1 20.87010861 0.25304126 10.03173445 -5.52453627e-03
248 1 20.97556508 0.25491312 10.09333561 -6.11677386e-03
249 1 21.08110421 0.25686090 10.15492247 -5.40422112e-03
250 1 21.18662228 0.25883746 10.21643645 -5.51625079e-03
251 1 21.29217361 0.26077357 10.27790746 -6.10817079e-03
252 1 21.39776378 0.26271935 10.33934578 -5.39058303e-03
253 1 21.50337285 0.26464156 10.40075362 -5.51111698e-03
254 1 21.60898087 0.26661236 10.46213462 -6.09959331e-03
255 1 21.71464214 0.26856994 10.52349841 -5.37708140e-03
256 1 21.82031301 0.27044664 10.58480565 -5.50601994e-03
257 1 21.92599634 0.27240133 10.64612601 -6.09132348e-03
258 1 22.03170793 0.27437220 10.70739803 -5.36406280e-03
259 1 22.13743627 0.27630791 10.76863828 -5.50114066e-03
260 1 22.24320552 0.27827268 10.82987473 -6.07613573e-03
261 1 22.34896368 0.28021828 10.89109323 -5.86576563e-03
262 1 22.45474972 0.28220205 10.95228850 -5.87763703e-03
263 1 22.56052564 0.28416122 11.01347491 -5.79509293e-03
264 1 22.66633251 0.28612256 11.07465301 -6.45795830e-03
265 1 22.77212946 0.28807859 11.13582373 -6.36067877e-03
266 1 22.87793695 0.29003131 11.19699714 -5.01672083e-03
267 1 0.12077882 -0.00311658 0.24340907 4.80862070e-03
268 1 0.24130577 -0.00589153 0.24363851 5.62714142e-03
269 1 0.36171107 -0.00593696 0.24492717 6.00619986e-03
270 1 0.48171328 -0.00623483 0.24966466 6.09052560e-03
271 1 0.60029174 -0.00798068 0.25456275 6.09206826e-03
272 1 0.72044555 -0.00876100 0.26045801 5.94781856e-03
273 1 0.84018550 -0.00885973 0.26930426 5.82025544e-03
274 1 0.95859698 -0.00697064 0.27830923 5.95871849e-03
275 1 1.07705515 -0.00655599 0.28970504 6.09232315e-03
276 1 1.19615213 -0.00666324 0.30346013 6.09205550e-03
277 1 1.31496640 -0.00560470 0.31689283 6.08598370e-03
278 1 1.43429542 -0.00600612 0.33165279 6.07933546e-03
279 1 1.55337393 -0.00608577 0.34912790 6.08488133e-03
280 1 1.67082972 -0.00564659 0.36703921 6.08161608e-03
281 1 1.78933314 -0.00595900 0.38714162 6.08881076e-03
282 1 1.90802153 -0.00600948 0.40850417 6.09207793e-03
283 1 2.02432291 -0.00501135 0.43002759 6.09206431e-03
284 1 2.14275827 -0.00337274 0.45350715 6.09206920e-03
285 1 2.26026056 -0.00329349 0.47905591 6.09206749e-03
286 1 2.37781816 -0.00269511 0.50559728 6.09206826e-03
287 1 2.49523787 -0.00189564 0.53224176 6.09206901e-03
288 1 2.61255179 -0.00185894 0.56148760 6.08547783e-03
289 1 2.72899993 -0.00103156 0.59024812 6.07797420e-03
290 1 2.84534352 -0.00014090 0.62078017 6.08460882e-03
291 1 2.96189162 0.00115728 0.65209088 6.08123045e-03
292 1 3.07816397 0.00193616 0.68516259 6.08867780e-03
293 1 3.19340915 0.00239621 0.71807965 6.09206866e-03
294 1 3.30907722 0.00234740 0.75223409 6.09206839e-03
295 1 3.42431676 0.00377366 0.78777138 6.09206833e-03
296 1 3.53953768 0.00429119 0.82413052 6.09206826e-03
297 1 3.65487555 0.00479450 0.86141363 6.09206824e-03
298 1 3.76924832 0.00520488 0.89898924 6.09206825e-03
299 1 3.88368470 0.00603764 0.93785796 6.10477040e-03
300 1 3.99748226 0.00725346 0.97697158 6.10144793e-03
301 1 4.11200101 0.00813053 1.01725987 6.09206826e-03
302 1 4.22609700 0.00897601 1.05817939 6.08473760e-03
303 1 4.34012740 0.00919596 1.09912318 6.07718969e-03
304 1 4.45388518 0.00929804 1.14133240 6.08430762e-03
305 1 4.56680123 0.01133545 1.18458909 6.08084602e-03
306 1 4.67959343 0.01193877 1.22820338 6.08857506e-03
307 1 4.79213085 0.01232665 1.27272234 6.09439460e-03
308 1 4.90451666 0.01289316 1.31796043 6.09360296e-03
309 1 5.01655605 0.01463882 1.36341436 6.10212083e-03
310 1 5.12811074 0.01523333 1.40968962 6.09455787e-03
311 1 5.23992730 0.01607363 1.45681767 6.08457013e-03
312 1 5.35153892 0.01717802 1.50450068 6.08334006e-03
313 1 5.46264384 0.01807007 1.55251712 6.09025173e-03
314 1 5.57374340 0.01865706 1.60132733 6.09206826e-03
315 1 5.68493687 0.01941231 1.65094866 6.09206826e-03
316 1 5.79544684 0.02048943 1.70075539 6.08838437e-03
317 1 5.90550999 0.02182863 1.75155037 6.09329454e-03
318 1 6.01526489 0.02192172 1.80257780 6.09400483e-03
319 1 6.12541760 0.02291860 1.85406613 6.08872179e-03
320 1 6.23539837 0.02399544 1.90602256 6.08812243e-03
321 1 6.34484807 0.02531591 1.95805742 6.09206826e-03
322 1 6.45411997 0.02619153 2.01123596 6.09206826e-03
323 1 6.56321338 0.02755833 2.06505830 6.09206826e-03
324 1 6.67189965 0.02844822 2.11893312 6.06302327e-03
325 1 6.78046300 0.02969525 2.17335382 6.06302327e-03
326 1 6.88888602 0.03075170 2.22807856 5.90236529e-03
327 1 6.99730754 0.03195328 2.28350608 5.81608564e-03
328 1 7.10559480 0.03332078 2.33923813 6.10035823e-03
329 1 7.21342438 0.03405822 2.39522163 5.08741347e-03
330 1 7.32176945 0.03504102 2.45141513 6.88423117e-03
331 1 7.42926621 0.03631401 2.50833863 4.95164977e-03
332 1 7.53660452 0.03744321 2.56493559 5.63292633e-03
333 1 7.64402216 0.03836757 2.62234850 5.95654755e-03
334 1 7.75134797 0.03945571 2.67997423 6.00432988e-03
335 1 7.85851117 0.04073729 2.73790413 6.08757506e-03
336 1 7.96545336 0.04187151 2.79617132 5.05700823e-03
337 1 8.07242113 0.04277133 2.85460295 6.83715280e-03
338 1 8.17915381 0.04409341 2.91324420 4.93632937e-03
339 1 8.28578622 0.04504991 2.97249719 5.62467055e-03
340 1 8.39216543 0.04600768 3.03170350 5.95386311e-03
341 1 8.49828765 0.04723495 3.09132766 6.00199927e-03
342 1 8.60455563 0.04839502 3.15127615 6.06987486e-03
343 1 8.71038815 0.04951395 3.21125844 5.01509653e-03
344 1 8.81651102 0.05079887 3.27156350 6.78511241e-03
345 1 8.92232606 0.05190718 3.33211842 4.92113473e-03
346 1 9.02796236 0.05304073 3.39309681 5.61645056e-03
347 1 9.13338726 0.05445450 3.45419525 5.95118153e-03
348 1 9.23887688 0.05558159 3.51540384 6.09206826e-03
349 1 9.34405973 0.05687798 3.57700427 6.09206826e-03
350 1 9.44935596 0.05806903 3.63859182 6.09206826e-03
351 1 9.55462189 0.05937239 3.70052387 6.50085567e-03
352 1 9.65974315 0.06061136 3.76251042 6.38496347e-03
353 1 9.76486953 0.06184335 3.82470625 5.77251663e-03
354 1 9.86973614 0.06308999 3.88699767 5.73476969e-03
355 1 9.97470245 0.06433026 3.94949819 5.94888879e-03
356 1 10.07949841 0.06543728 4.01210192 6.09206826e-03
357 1 10.18417172 0.06688999 4.07484551 6.09206826e-03
358 1 10.28880660 0.06813049 4.13783781 6.09206826e-03
359 1 10.39332179 0.06934995 4.20090698 6.09206826e-03
360 1 10.49763746 0.07074426 4.26417203 4.98457375e-03
361 1 10.60213007 0.07211388 4.32756803 6.69756871e-03
362 1 10.70653032 0.07349833 4.39108393 5.15375987e-03
363 1 10.81078168 0.07481660 4.45460047 4.95985007e-03
364 1 10.91504223 0.07614968 4.51822974 6.48212442e-03
365 1 11.01926536 0.07747595 4.58208686 5.14927068e-03
366 1 11.12341096 0.07889795 4.64593732 4.95341033e-03
367 1 11.22750072 0.08014687 4.70994388 6.46347279e-03
368 1 11.33155338 0.08165440 4.77395154 5.14043101e-03
369 1 11.43553306 0.08296194 4.83809675 4.91020010e-03
370 1 11.53960081 0.08439650 4.90231343 6.45556760e-03
371 1 11.64357287 0.08581527 4.96663095 4.90989307e-03
372 1 11.74749767 0.08719627 5.03100441 5.52395043e-03
373 1 11.85138149 0.08865562 5.09541214 5.87068470e-03
374 1 11.95521785 0.09008438 5.15987661 4.87920209e-03
375 1 12.05908419 0.09149620 5.22438798 6.41661913e-03
376 1 12.16289500 0.09295592 5.28897369 4.89988333e-03
377 1 12.26671993 0.09441985 5.35358655 5.51681014e-03
378 1 12.37051000 0.09587838 5.41825620 5.85936171e-03
379 1 12.47424254 0.09733341 5.48295692 4.85938456e-03
380 1 12.57800992 0.09881629 5.54767538 6.38254444e-03
381 1 12.68177122 0.10030107 5.61243500 4.88995824e-03
382 1 12.78550130 0.10179427 5.67723124 5.57476230e-03
383 1 12.88921245 0.10332765 5.74204782 5.93743790e-03
384 1 12.99292549 0.10482355 5.80687607 5.98766457e-03
385 1 13.09664003 0.10634752 5.87172521 5.96043235e-03
386 1 13.20034995 0.10786245 5.93659138 4.81637844e-03
387 1 13.30407787 0.10940207 6.00147398 6.34214196e-03
388 1 13.40780025 0.11094617 6.06635815 4.87620659e-03
389 1 13.51152310 0.11249490 6.13125447 5.56677439e-03
390 1 13.61525162 0.11404906 6.19614213 5.93477518e-03
391 1 13.71898736 0.11559967 6.26100857 5.98532808e-03
392 1 13.82272338 0.11717244 6.32590958 5.94249673e-03
393 1 13.92647725 0.11874727 6.39078878 4.79106117e-03
394 1 14.03023182 0.12033441 6.45564456 6.34873408e-03
395 1 14.13401245 0.12190049 6.52051312 5.10720957e-03
396 1 14.23781918 0.12352979 6.58535042 4.79385489e-03
397 1 14.34162057 0.12513345 6.65018910 6.33054845e-03
398 1 14.44543347 0.12677667 6.71496700 5.10009402e-03
399 1 14.54929119 0.12838854 6.77977084 4.78369059e-03
400 1 14.65312329 0.12998609 6.84451097 6.31203828e-03
401 1 14.75699018 0.13164876 6.90925500 5.09300092e-03
402 1 14.86092249 0.13328586 6.97397238 4.74903927e-03
403 1 14.96486388 0.13493575 7.03861056 6.32830758e-03
404 1 15.06875473 0.13658116 7.10326457 5.08343922e-03
405 1 15.17272760 0.13824566 7.16782839 4.32591159e-03
406 1 15.27673231 0.13995646 7.23239801 6.00104739e-03
407 1 15.38074029 0.14157656 7.29692025 5.21119202e-03
408 1 15.48483077 0.14331360 7.36145848 6.09206826e-03
409 1 15.58887019 0.14502816 7.42591824 6.05153388e-03
410 1 15.69299407 0.14669535 7.49034291 5.91774538e-03
411 1 15.79709063 0.14841218 7.55471918 6.22305381e-03
412 1 15.90125249 0.15009385 7.61901241 5.03791106e-03
413 1 16.00546241 0.15183960 7.68327413 4.72607940e-03
414 1 16.10965911 0.15351718 7.74748190 8.71836332e-03
415 1 16.21390917 0.15530211 7.81165873 5.95355142e-03
416 1 16.31818364 0.15701130 7.87580508 5.36960420e-03
417 1 16.42248329 0.15885077 7.93988264 6.03255871e-03
418 1 16.52683862 0.16057160 8.00392002 5.00245570e-03
419 1 16.63128040 0.16234470 8.06792535 4.70280803e-03
420 1 16.73570749 0.16403522 8.13180212 8.65685956e-03
421 1 16.84017238 0.16582794 8.19564600 5.94692135e-03
422 1 16.94461722 0.16763760 8.25947280 5.65886656e-03
423 1 17.04914528 0.16939495 8.32317941 5.98663784e-03
424 1 17.15378119 0.17117314 8.38685307 6.03862808e-03
425 1 17.25838808 0.17298926 8.45046823 6.08821513e-03
426 1 17.36298721 0.17476889 8.51400941 6.17296108e-03
427 1 17.46763575 0.17657444 8.57747004 6.04911048e-03
428 1 17.57234438 0.17831352 8.64093280 6.99423467e-03
429 1 17.67707515 0.18010649 8.70430006 6.49916941e-03
430 1 17.78181885 0.18195232 8.76762732 6.05139015e-03
431 1 17.88668409 0.18374268 8.83085203 6.07023001e-03
432 1 17.99150551 0.18561030 8.89408594 6.06423220e-03
433 1 18.09637394 0.18745109 8.95722306 6.03339671e-03
434 1 18.20123892 0.18932960 9.02032338 6.06123277e-03
435 1 18.30621863 0.19111753 9.08335747 6.05523286e-03
436 1 18.41119877 0.19301307 9.14632036 6.01539697e-03
437 1 18.51617362 0.19479476 9.20920910 6.05223237e-03
438 1 18.62117752 0.19669565 9.27209573 6.04623034e-03
439 1 18.72632097 0.19856338 9.33493301 5.99739088e-03
440 1 18.83139582 0.20042996 9.39763017 6.03386113e-03
441 1 18.93652459 0.20228992 9.46024483 6.06015229e-03
442 1 19.04174933 0.20418673 9.52285890 6.93292310e-03
443 1 19.14702850 0.20601753 9.58539483 6.60839364e-03
444 1 19.25229754 0.20791576 9.64785408 6.08325267e-03
445 1 19.35758876 0.20975497 9.71028138 5.98999100e-03
446 1 19.46289556 0.21162321 9.77260182 6.02220795e-03
447 1 19.56825211 0.21350217 9.83488853 5.94934321e-03
448 1 19.67364532 0.21544528 9.89711764 6.00521256e-03
449 1 19.77904517 0.21733389 9.95925162 5.96042100e-03
450 1 19.88453193 0.21919543 10.02139276 6.01327673e-03
451 1 19.98998209 0.22106726 10.08344813 6.06616825e-03
452 1 20.09549284 0.22298437 10.14545710 6.09206826e-03
453 1 20.20100744 0.22491396 10.20742412 6.22108889e-03
454 1 20.30653356 0.22682493 10.26933650 6.93510095e-03
455 1 20.41211323 0.22871971 10.33118923 6.55067958e-03
456 1 20.51775157 0.23064557 10.39300878 5.44215936e-03
457 1 20.62335181 0.23258819 10.45479045 5.52453627e-03
458 1 20.72898862 0.23446794 10.51649785 6.09206826e-03
459 1 20.83466287 0.23637009 10.57815572 5.52769247e-03
460 1 20.94033195 0.23830207 10.63978439 5.54504444e-03
461 1 21.04603985 0.24020631 10.70132897 6.09206826e-03
462 1 21.15179634 0.24215278 10.76287957 5.52433613e-03
463 1 21.25751794 0.24406990 10.82436804 5.54169116e-03
464 1 21.36328826 0.24594469 10.88582827 6.09959331e-03
465 1 21.46907443 0.24788768 10.94723932 5.37708140e-03
466 1 21.57484393 0.24981915 11.00863401 5.50601994e-03
467 1 21.68063678 0.25173841 11.06998870 6.09132348e-03
468 1 21.78646538 0.25366782 11.13131989 5.36406280e-03
469 1 21.89228212 0.25560299 11.19261994 5.50114066e-03
470 1 21.99811658 0.25752046 11.25391234 6.07613573e-03
471 1 22.10392983 0.25947100 11.31516338 5.86576563e-03
472 1 22.20976934 0.26140196 11.37640491 5.87763704e-03
473 1 22.31561450 0.26333801 11.43763073 5.79509293e-03
474 1 22.42143227 0.26528140 11.49883565 6.45795830e-03
475 1 22.52727413 0.26721103 11.56002589 6.36067877e-03
476 1 22.63310462 0.26915820 11.62120524 5.01672083e-03
477 1 0.12365666 1.20683573 -0.24453075 -5.06599779e-03
478 1 0.24760399 1.20561588 -0.24476036 -5.96099493e-03
479 1 0.37283075 1.20331520 -0.24200071 -6.06828787e-03
480 1 0.49813261 1.20408254 -0.23835277 -6.09081051e-03
481 1 0.62301302 1.20407307 -0.23233885 -6.09597885e-03
482 1 0.74781133 1.20453567 -0.22535906 -6.09677124e-03
483 1 0.87386958 1.20340454 -0.21591172 -6.09261604e-03
484 1 0.99879952 1.20450345 -0.20555344 -6.09210769e-03
485 1 1.12419766 1.20380672 -0.19192772 -6.09159289e-03
486 1 1.24817310 1.20421391 -0.17794588 -6.09258964e-03
487 1 1.37262600 1.20675548 -0.16363530 -6.11404233e-03
488 1 1.49627036 1.20736857 -0.14649960 -6.12924398e-03
489 1 1.61940041 1.20621353 -0.12847052 -6.13810471e-03
490 1 1.74280152 1.20679832 -0.10961123 -6.10740278e-03
491 1 1.86636858 1.20689015 -0.08862409 -6.11299929e-03
492 1 1.98937391 1.20772492 -0.06495186 -6.11651709e-03
493 1 2.11206687 1.20756185 -0.04263841 -6.10892752e-03
494 1 2.23458685 1.20986609 -0.01773873 -6.08383817e-03
495 1 2.35700155 1.21115165 0.00877940 -6.07811671e-03
496 1 2.47813815 1.21120558 0.03686332 -6.12167487e-03
497 1 2.59908746 1.21094065 0.06506443 -6.12891596e-03
498 1 2.72033368 1.21249629 0.09421193 -6.13439434e-03
499 1 2.84141765 1.21386892 0.12567632 -6.11877956e-03
500 1 2.96183953 1.21365020 0.15770417 -6.09486572e-03
501 1 3.08178589 1.21514394 0.19061244 -6.09206826e-03
502 1 3.20219164 1.21577393 0.22482746 -6.09206855e-03
503 1 3.32127908 1.21641229 0.26012403 -6.09206932e-03
504 1 3.43945644 1.21739002 0.29603394 -6.11378764e-03
505 1 3.55930166 1.21953082 0.33308568 -6.10132488e-03
506 1 3.67683587 1.22058640 0.37093396 -6.14015253e-03
507 1 3.79467164 1.22084731 0.40909359 -6.18862768e-03
508 1 3.91165259 1.22234859 0.44911928 -6.20494803e-03
509 1 4.02896701 1.22312972 0.48871980 -6.16689241e-03
510 1 4.14552184 1.22392954 0.52982190 -6.13536340e-03
511 1 4.26228286 1.22465186 0.57114693 -6.09206826e-03
512 1 4.37853715 1.22545332 0.61322283 -6.09528258e-03
513 1 4.49498807 1.22691544 0.65589172 -6.10197805e-03
514 1 4.61129648 1.22752440 0.69953496 -6.09705471e-03
515 1 4.72661024 1.22879907 0.74394884 -6.06436498e-03
516 1 4.84212890 1.22919008 0.78963801 -6.12133674e-03
517 1 4.95672222 1.23057642 0.83514262 -6.20974613e-03
518 1 5.07136945 1.23195477 0.88155891 -6.24802334e-03
519 1 5.18537666 1.23312841 0.92873666 -6.19819175e-03
520 1 5.29965397 1.23338122 0.97663704 -6.15088270e-03
521 1 5.41366985 1.23456247 1.02519373 -6.13301438e-03
522 1 5.52695362 1.23632927 1.07426015 -6.10131989e-03
523 1 5.64041662 1.23725293 1.12408808 -6.05757291e-03
524 1 5.75324889 1.23874558 1.17428770 -6.04491082e-03
525 1 5.86536941 1.23954984 1.22538072 -6.05437557e-03
526 1 5.97796340 1.24118949 1.27667185 -6.06489385e-03
527 1 6.08977532 1.24252543 1.32838354 -6.09206826e-03
528 1 6.20138224 1.24389453 1.38085637 -6.09206826e-03
529 1 6.31282496 1.24449830 1.43386903 -6.09979510e-03
530 1 6.42382077 1.24571797 1.48726762 -6.12512692e-03
531 1 6.53486376 1.24724668 1.54100264 -6.16578501e-03
532 1 6.64549551 1.24799467 1.59558925 -6.26929389e-03
533 1 6.75562796 1.24919979 1.65001138 -6.28695529e-03
534 1 6.86630781 1.25091270 1.70478515 -6.28583704e-03
535 1 6.97628072 1.25181527 1.76017968 -6.23881179e-03
536 1 7.08628370 1.25307752 1.81625116 -6.30184580e-03
537 1 7.19572914 1.25438344 1.87250158 -6.28022129e-03
538 1 7.30510981 1.25570652 1.92898336 -6.24103982e-03
539 1 7.41445941 1.25705487 1.98584483 -6.33470904e-03
540 1 7.52350875 1.25778549 2.04348637 -6.28101331e-03