ITEM: TIMESTEP
0
ITEM: NUMBER OF ATOMS
10710
ITEM: BOX BOUNDS ff ff ff
-2.0 24.743298910563603
-2.0097738253372084 3.6594159895210265
-2.2462672456179176 14.204564942074096
ITEM: ATOMS id type x y z q
1 2 0.00000000 0.00000000 0.24527477 3.35542180e-03
2 2 0.00000000 0.00000000 -0.24472523 -3.35542180e-03
3 2 0.00000000 1.21000000 0.24527477 3.41686920e-03
4 2 0.00000000 1.21000000 -0.24472523 -3.41686920e-03
5 1 22.50128639 0.42694145 12.16686010 3.37776783e-03
6 1 22.74329891 0.45153726 11.74115391 -3.37776783e-03
7 1 22.44421264 1.63449931 12.20456494 3.41686920e-03
8 1 22.68615277 1.65941599 11.77885562 -3.41686920e-03
9 2 0.00000000 0.00000000 -0.12222523 0.00000000e+00
10 2 0.00000000 0.00000000 0.00027477 0.00000000e+00
11 2 0.00000000 0.00000000 0.12277477 0.00000000e+00
12 2 0.00000000 0.12100000 0.24527477 5.18139194e-03
13 2 0.00000000 0.24200000 0.24527477 5.50362000e-03
14 2 0.00000000 0.36300000 0.24527477 5.01501884e-03
15 2 0.00000000 0.48400000 0.24527477 5.50904170e-03
16 2 0.00000000 0.60500000 0.24527477 6.02408537e-03
17 2 0.00000000 0.72600000 0.24527477 6.86123120e-03
18 2 0.00000000 0.84700000 0.24527477 6.83241897e-03
19 2 0.00000000 0.96800000 0.24527477 5.84994208e-03
20 2 0.00000000 1.08900000 0.24527477 4.96878236e-03
21 2 0.00000000 1.21000000 -0.12222523 0.00000000e+00
22 2 0.00000000 1.21000000 0.00027477 0.00000000e+00
23 2 0.00000000 1.21000000 0.12277477 0.00000000e+00
24 2 0.00000000 0.12100000 -0.24472523 -5.18139194e-03
25 2 0.00000000 0.24200000 -0.24472523 -5.50362000e-03
26 2 0.00000000 0.36300000 -0.24472523 -5.01501884e-03
27 2 0.00000000 0.48400000 -0.24472523 -5.50904170e-03
28 2 0.00000000 0.60500000 -0.24472523 -6.02408537e-03
29 2 0.00000000 0.72600000 -0.24472523 -6.86123120e-03
30 2 0.00000000 0.84700000 -0.24472523 -6.83241897e-03
31 2 0.00000000 0.96800000 -0.24472523 -5.84994208e-03
32 2 0.00000000 1.08900000 -0.24472523 -4.96878236e-03
33 1 22.68278770 0.44538376 11.84759216 0.00000000e+00
34 1 22.62228147 0.43923072 11.95401116 0.00000000e+00
35 1 22.56177785 0.43308419 12.06042925 0.00000000e+00
36 1 22.49558948 0.54770716 12.17060082 5.05002864e-03
37 1 22.48990168 0.66846468 12.17434711 5.64089052e-03
38 1 22.48420998 0.78922585 12.17809133 5.44128437e-03
39 1 22.47853495 0.90998303 12.18185098 6.40224548e-03
40 1 22.47280818 1.03073075 12.18560437 6.88148315e-03
41 1 22.46710461 1.15148162 12.18936916 6.11583422e-03
42 1 22.46138406 1.27223920 12.19315478 5.69198232e-03
43 1 22.45564284 1.39300302 12.19696285 6.01735171e-03
44 1 22.44991818 1.51374999 12.20075756 5.43527194e-03
45 1 22.62566300 1.65318650 11.88529062 0.00000000e+00
46 1 22.56517029 1.64696054 11.99170436 0.00000000e+00
47 1 22.50468157 1.64073176 12.09812592 0.00000000e+00
48 1 22.73760072 0.57231414 11.74490683 -5.05002864e-03
49 1 22.73190106 0.69310420 11.74866555 -5.64089052e-03
50 1 22.72620206 0.81388397 11.75238797 -5.44128437e-03
51 1 22.72050237 0.93467514 11.75612998 -6.40224548e-03
52 1 22.71479547 1.05546927 11.75989516 -6.88148315e-03
53 1 22.70907659 1.17627063 11.76369897 -6.11583422e-03
54 1 22.70335062 1.29707233 11.76746195 -5.69198232e-03
55 1 22.69761790 1.41786038 11.77126217 -6.01735171e-03
56 1 22.69189711 1.53863830 11.77506748 -5.43527194e-03
57 1 0.12459492 0.00451267 -0.24626725 -4.80862070e-03
58 1 0.24977480 0.00801846 -0.24475060 -5.62714142e-03
59 1 0.37509798 0.00858454 -0.24235696 -6.00619986e-03
60 1 0.50159965 0.00852279 -0.23845010 -6.09052560e-03
61 1 0.62715441 0.00879579 -0.23253469 -6.09206826e-03
62 1 0.75284536 0.01056820 -0.22498048 -5.94781856e-03
63 1 0.87817510 0.01234197 -0.21597650 -5.82025544e-03
64 1 1.00306407 0.01140109 -0.20231337 -5.95871849e-03
65 1 1.12971085 0.01195832 -0.18901561 -6.09232315e-03
66 1 1.25513180 0.01156481 -0.17462994 -6.09205550e-03
67 1 1.37949386 0.01237581 -0.15771238 -6.08598370e-03
68 1 1.50380071 0.01403617 -0.13729981 -6.07933546e-03
69 1 1.62784129 0.01472521 -0.11835535 -6.08488133e-03
70 1 1.75144097 0.01501138 -0.09642659 -6.08161608e-03
71 1 1.87451155 0.01552533 -0.07323716 -6.08881076e-03
72 1 1.99873824 0.01571097 -0.04789041 -6.09207793e-03
73 1 2.12191109 0.01653727 -0.02175433 -6.09206431e-03
74 1 2.24449851 0.01823614 0.00705717 -6.09206920e-03
75 1 2.36674730 0.01868457 0.03638173 -6.09206749e-03
76 1 2.48806660 0.01888066 0.06689136 -6.09206826e-03
77 1 2.60882578 0.01960632 0.09853079 -6.09206901e-03
78 1 2.73000599 0.01907344 0.13122222 -6.08547783e-03
79 1 2.85024508 0.02032355 0.16520020 -6.07797420e-03
80 1 2.97007303 0.02249997 0.20059265 -6.08460882e-03
81 1 3.08972584 0.02260462 0.23683708 -6.08123045e-03
82 1 3.20855410 0.02378569 0.27465588 -6.08867780e-03
83 1 3.32683156 0.02489885 0.31346856 -6.09206866e-03
84 1 3.44525936 0.02595349 0.35362020 -6.09206839e-03
85 1 3.56291985 0.02624310 0.39397544 -6.09206833e-03
86 1 3.68056621 0.02661428 0.43593273 -6.09206826e-03
87 1 3.79807317 0.02851364 0.47880373 -6.09206824e-03
88 1 3.91472531 0.02979910 0.52202799 -6.09206825e-03
89 1 4.03134840 0.03004934 0.56587214 -6.10477040e-03
90 1 4.14744914 0.03191268 0.61083991 -6.10144793e-03
91 1 4.26257578 0.03299745 0.65669755 -6.09206826e-03
92 1 4.37836836 0.03391051 0.70304820 -6.08473760e-03
93 1 4.49284049 0.03497065 0.75013450 -6.07718969e-03
94 1 4.60725055 0.03653124 0.79842452 -6.08430762e-03
95 1 4.72133866 0.03812393 0.84700039 -6.08084602e-03
96 1 4.83551774 0.03916804 0.89604605 -6.08857506e-03
97 1 4.94928581 0.04112832 0.94638370 -6.09439460e-03
98 1 5.06264158 0.04185966 0.99729128 -6.09360296e-03
99 1 5.17520062 0.04331592 1.04941216 -6.10212083e-03
100 1 5.28795883 0.04434703 1.10158218 -6.09455787e-03
101 1 5.39985341 0.04641179 1.15414504 -6.08457013e-03
102 1 5.51151685 0.04760884 1.20753264 -6.08334006e-03
103 1 5.62345177 0.04884199 1.26215669 -6.09025173e-03
104 1 5.73425916 0.05025669 1.31668301 -6.09206826e-03
105 1 5.84510530 0.05171614 1.37173174 -6.09206826e-03
106 1 5.95553473 0.05368427 1.42748441 -6.08838437e-03
107 1 6.06552080 0.05515045 1.48360836 -6.09329454e-03
108 1 6.17592552 0.05619196 1.54027966 -6.09400483e-03
109 1 6.28565543 0.05801127 1.59747810 -6.08872179e-03
110 1 6.39510541 0.05983538 1.65564721 -6.08812243e-03
111 1 6.50381517 0.06141890 1.71383035 -6.09206826e-03
112 1 6.61281925 0.06293318 1.77220353 -6.09206826e-03
113 1 6.72118319 0.06447232 1.83094334 -6.09206826e-03
114 1 6.82904250 0.06627967 1.89057331 -6.06302327e-03
115 1 6.93707742 0.06740038 1.95046518 -6.06302327e-03
116 1 7.04487528 0.06906419 2.01098673 -5.90236529e-03
117 1 7.15217527 0.07082020 2.07177856 -5.81608564e-03
118 1 7.25933956 0.07247602 2.13270119 -6.10035823e-03
119 1 7.36638022 0.07410182 2.19408498 -5.08741334e-03
120 1 7.47303627 0.07572523 2.25568524 -6.87719096e-03
121 1 7.57938468 0.07758011 2.31754256 -5.18694999e-03
122 1 7.68609589 0.07897494 2.37968311 -5.00655937e-03
123 1 7.79206005 0.08077436 2.44225589 -7.17602109e-03
124 1 7.89797412 0.08278891 2.50506887 -5.64123658e-03
125 1 8.00403930 0.08463520 2.56816310 -5.91249038e-03
126 1 8.10946995 0.08627659 2.63135272 -5.77202514e-03
127 1 8.21484588 0.08808056 2.69479268 -5.95689302e-03
128 1 8.32026299 0.09003767 2.75857222 -6.09206826e-03
129 1 8.42537374 0.09158561 2.82263913 -6.09206826e-03
130 1 8.53023553 0.09341608 2.88681658 -6.09206826e-03
131 1 8.63497898 0.09532361 2.95114978 -6.00199927e-03
132 1 8.73970758 0.09752271 3.01577511 -6.06987486e-03
133 1 8.84423376 0.09942543 3.08062489 -5.02835518e-03
134 1 8.94855566 0.10123971 3.14561594 -6.79157831e-03
135 1 9.05256418 0.10334013 3.21087221 -4.92113473e-03
136 1 9.15674502 0.10505954 3.27628481 -5.56259368e-03
137 1 9.26070685 0.10683108 3.34197865 -5.94323360e-03
138 1 9.36446571 0.10891464 3.40792286 -5.00637084e-03
139 1 9.46800673 0.11073323 3.47370236 -6.75640181e-03
140 1 9.57154546 0.11254199 3.53966729 -4.91035923e-03
141 1 9.67488778 0.11448865 3.60586169 -5.75765677e-03
142 1 9.77824373 0.11647845 3.67210164 -6.37465021e-03
143 1 9.88150448 0.11857508 3.73843038 -6.33172667e-03
144 1 9.98462225 0.12058949 3.80485302 -5.77695765e-03
145 1 10.08776139 0.12274368 3.87140219 -5.75602868e-03
146 1 10.19077371 0.12472132 3.93800626 -5.94989338e-03
147 1 10.29358234 0.12671483 4.00481499 -6.09206826e-03
148 1 10.39641031 0.12886960 4.07170559 -6.09206826e-03
149 1 10.49915297 0.13083464 4.13869338 -6.49862787e-03
150 1 10.60183366 0.13296840 4.20577304 -6.47806478e-03
151 1 10.70445697 0.13498383 4.27285833 -5.98398651e-03
152 1 10.80702420 0.13713655 4.34006775 -5.97118729e-03
153 1 10.90953434 0.13918974 4.40726433 -6.32827249e-03
154 1 11.01200012 0.14134180 4.47449125 -6.38296841e-03
155 1 11.11440860 0.14354538 4.54179510 -6.09206826e-03
156 1 11.21674006 0.14562659 4.60915670 -5.92176613e-03
157 1 11.31903284 0.14778345 4.67651317 -5.84196899e-03
158 1 11.42126723 0.14995316 4.74388737 -5.89327746e-03
159 1 11.52349641 0.15215781 4.81136223 -4.96011300e-03
160 1 11.62568019 0.15434629 4.87883737 -6.65158567e-03
161 1 11.72785322 0.15656945 4.94633548 -4.90989307e-03
162 1 11.83004321 0.15879780 5.01382043 -5.52395043e-03
163 1 11.93218678 0.16102313 5.08130387 -5.87068470e-03
164 1 12.03427511 0.16326470 5.14879959 -4.88602194e-03
165 1 12.13637918 0.16552471 5.21629448 -6.40279006e-03
166 1 12.23844456 0.16779577 5.28379354 -5.12407601e-03
167 1 12.34052174 0.17009670 5.35126849 -4.88216806e-03
168 1 12.44259473 0.17237571 5.41877472 -6.38017819e-03
169 1 12.54465240 0.17468008 5.48623059 -5.11373203e-03
170 1 12.64671674 0.17703370 5.55364959 -4.85398664e-03
171 1 12.74879129 0.17935254 5.62107677 -6.35577596e-03
172 1 12.85088790 0.18170029 5.68843696 -5.10698016e-03
173 1 12.95297779 0.18408049 5.75578473 -4.85870271e-03
174 1 13.05509795 0.18644424 5.82310180 -6.37702085e-03
175 1 13.15720290 0.18884407 5.89040982 -5.10092274e-03
176 1 13.25932839 0.19123224 5.95766794 -4.84968636e-03
177 1 13.36147534 0.19360557 6.02489249 -6.37599125e-03
178 1 13.46359702 0.19603504 6.09205237 -4.87710407e-03
179 1 13.56576069 0.19845710 6.15913193 -5.56677439e-03
180 1 13.66793879 0.20094849 6.22621509 -5.93477518e-03
181 1 13.77015015 0.20334191 6.29322850 -6.09206826e-03
182 1 13.87238976 0.20584121 6.36017557 -6.09206826e-03
183 1 13.97466848 0.20827424 6.42707430 -5.98211588e-03
184 1 14.07698310 0.21076457 6.49391223 -5.88223740e-03
185 1 14.17933528 0.21324904 6.56066386 -5.93479953e-03
186 1 14.28172605 0.21589819 6.62730979 -4.77734034e-03
187 1 14.38416558 0.21840584 6.69396674 -6.31776323e-03
188 1 14.48660638 0.22091150 6.76052218 -4.85845554e-03
189 1 14.58906695 0.22343015 6.82694524 -5.48045656e-03
190 1 14.69158368 0.22603332 6.89334360 -5.74774533e-03
191 1 14.79420846 0.22865188 6.95967443 -5.91938606e-03
192 1 14.89681572 0.23128857 7.02583136 -4.72601755e-03
193 1 14.99945870 0.23382667 7.09197427 -6.44309587e-03
194 1 15.10224298 0.23645598 7.15808346 -5.21392668e-03
195 1 15.20498203 0.23910090 7.22413582 -4.32492230e-03
196 1 15.30774953 0.24171749 7.29005984 -6.11554878e-03
197 1 15.41063801 0.24436383 7.35587382 -5.20526136e-03
198 1 15.51346184 0.24700438 7.42155908 -4.31230685e-03
199 1 15.61641689 0.24964181 7.48729981 -6.11716232e-03
200 1 15.71947672 0.25223136 7.55284402 -5.69773107e-03
201 1 15.82249815 0.25502397 7.61831944 -5.99314584e-03
202 1 15.92556910 0.25765993 7.68365783 -4.76350900e-03
203 1 16.02879140 0.26045400 7.74885323 -5.21120302e-03
204 1 16.13195501 0.26317531 7.81405360 -6.01204532e-03
205 1 16.23526728 0.26592105 7.87919469 -5.73233737e-03
206 1 16.33856620 0.26871641 7.94415990 -5.81943467e-03
207 1 16.44201555 0.27143545 8.00907719 -6.32655047e-03
208 1 16.54537591 0.27423544 8.07378981 -5.03614005e-03
209 1 16.64885544 0.27700313 8.13858227 -4.70280803e-03
210 1 16.75247318 0.27977502 8.20317784 -8.65683464e-03
211 1 16.85603759 0.28251028 8.26769783 -5.94692004e-03
212 1 16.95982866 0.28536560 8.33202713 -5.65885778e-03
213 1 17.06345402 0.28818271 8.39636621 -5.99277035e-03
214 1 17.16731335 0.29110137 8.46050835 -6.04066598e-03
215 1 17.27122338 0.29399475 8.52463819 -6.09206826e-03
216 1 17.37509360 0.29667728 8.58850428 -6.09206826e-03
217 1 17.47913456 0.29953189 8.65244568 -6.09206826e-03
218 1 17.58311641 0.30250297 8.71626652 -5.94140402e-03
219 1 17.68722152 0.30543003 8.77998782 -6.09135703e-03
220 1 17.79138521 0.30827697 8.84359971 -6.09135703e-03
221 1 17.89553679 0.31114580 8.90709505 -6.09206826e-03
222 1 17.99980355 0.31407009 8.97050224 -6.22362401e-03
223 1 18.10420858 0.31688495 9.03382129 -6.30618064e-03
224 1 18.20855638 0.31988586 9.09703503 -6.16079228e-03
225 1 18.31297032 0.32286301 9.16020212 -6.90076158e-03
226 1 18.41748678 0.32577589 9.22327322 -7.19612184e-03
227 1 18.52198601 0.32870285 9.28623435 -6.17999120e-03
228 1 18.62657753 0.33158657 9.34907911 -5.85545161e-03
229 1 18.73123152 0.33455528 9.41186416 -6.04373412e-03
230 1 18.83592052 0.33742963 9.47446722 -6.05837687e-03
231 1 18.94066138 0.34048702 9.53699025 -6.22625934e-03
232 1 19.04552692 0.34351475 9.59947549 -6.96326852e-03
233 1 19.15033433 0.34649571 9.66186930 -6.60839364e-03
234 1 19.25533102 0.34944811 9.72411589 -6.08325267e-03
235 1 19.36039739 0.35248406 9.78624221 -5.98999100e-03
236 1 19.46543050 0.35544526 9.84833466 -6.02220795e-03
237 1 19.57054737 0.35855753 9.91030438 -5.94934321e-03
238 1 19.67572274 0.36160936 9.97221325 -6.23085673e-03
239 1 19.78098373 0.36462852 10.03410199 -5.91383044e-03
240 1 19.88619632 0.36762849 10.09582680 -5.82022831e-03
241 1 19.99151310 0.37072418 10.15754424 -6.06616825e-03
242 1 20.09685905 0.37386105 10.21908250 -6.09206826e-03
243 1 20.20232432 0.37689298 10.28062871 -6.22108889e-03
244 1 20.30777234 0.37982233 10.34211130 -6.93510095e-03
245 1 20.41332272 0.38288968 10.40347088 -6.55067958e-03
246 1 20.51880479 0.38602067 10.46479743 -5.44215936e-03
247 1 20.62444776 0.38906794 10.52608047 -5.52453627e-03
248 1 20.73005449 0.39207569 10.58724906 -6.11677386e-03
249 1 20.83578286 0.39519635 10.64839903 -5.40422112e-03
250 1 20.94147984 0.39836053 10.70943801 -5.51625079e-03
251 1 21.04722757 0.40146700 10.77041230 -6.10817079e-03
252 1 21.15303332 0.40458710 10.83133926 -5.39058303e-03
253 1 21.25886912 0.40767328 10.89222009 -5.51111698e-03
254 1 21.36470117 0.41083103 10.95306155 -6.09959331e-03
255 1 21.47061200 0.41396884 11.01387760 -5.37708140e-03
256 1 21.57653988 0.41699006 11.07461003 -5.50601994e-03
257 1 21.68248460 0.42012626 11.13536147 -6.09132348e-03
258 1 21.78847066 0.42328598 11.19604171 -5.36406280e-03
259 1 21.89448337 0.42639433 11.25667428 -5.50114066e-03
260 1 22.00055388 0.42954482 11.31730163 -6.07613573e-03
261 1 22.10660961 0.43266866 11.37790172 -5.86576563e-03
262 1 22.21270359 0.43584593 11.43847006 -5.87763703e-03
263 1 22.31878477 0.43898805 11.49902423 -5.79509293e-03
264 1 22.42491125 0.44213413 11.55956635 -6.45795830e-03
265 1 22.53102483 0.44527439 11.62009737 -6.36067877e-03
266 1 22.63715477 0.44840943 11.68063223 -5.01672083e-03
267 1 0.12057821 -0.00353864 0.24316391 4.80862070e-03
268 1 0.24090516 -0.00666608 0.24345625 5.62714142e-03
269 1 0.36110371 -0.00668903 0.24496176 6.00619986e-03
270 1 0.48082670 -0.00698072 0.25044202 6.09052560e-03
271 1 0.59894308 -0.00890783 0.25604053 6.09206826e-03
272 1 0.71886427 -0.00973673 0.26278924 5.94781856e-03
273 1 0.83827417 -0.00977383 0.27293464 5.82025544e-03
274 1 0.95617456 -0.00754378 0.28321051 5.95871849e-03
275 1 1.07410476 -0.00697256 0.29616516 6.09232315e-03
276 1 1.19273044 -0.00699776 0.31182781 6.09205550e-03
277 1 1.31103111 -0.00570146 0.32710525 6.08598370e-03
278 1 1.42992229 -0.00603637 0.34384249 6.07933546e-03
279 1 1.54845891 -0.00600605 0.36367285 6.08488133e-03
280 1 1.66518244 -0.00537888 0.38392483 6.08161608e-03
281 1 1.78305018 -0.00558812 0.40664441 6.08881076e-03
282 1 1.90107771 -0.00549208 0.43079572 6.09207793e-03
283 1 2.01644377 -0.00423241 0.45505447 6.09206431e-03
284 1 2.13413826 -0.00226040 0.48153781 6.09206920e-03
285 1 2.25073769 -0.00200735 0.51030233 6.09206749e-03
286 1 2.36737945 -0.00116285 0.54013836 6.09206826e-03
287 1 2.48386239 -0.00009119 0.57009369 6.09206901e-03
288 1 2.60014397 0.00015774 0.60292401 6.08547783e-03
289 1 2.71550604 0.00128848 0.63518272 6.07797420e-03
290 1 2.83068532 0.00247405 0.66938845 6.08460882e-03
291 1 2.94605779 0.00411441 0.70445167 6.08123045e-03
292 1 3.06108308 0.00519081 0.74142499 6.08867780e-03
293 1 3.17498583 0.00592317 0.77818410 6.09206866e-03
294 1 3.28933160 0.00611069 0.81630698 6.09206839e-03
295 1 3.40313698 0.00791787 0.85591864 6.09206833e-03
296 1 3.51692189 0.00873813 0.89641151 6.09206826e-03
297 1 3.63077887 0.00954823 0.93792236 6.09206824e-03
298 1 3.74359095 0.01027516 0.97969980 6.09206825e-03
299 1 3.85644224 0.01146155 1.02287878 6.10477040e-03
300 1 3.96858599 0.01305328 1.06629313 6.10144793e-03
301 1 4.08145737 0.01430523 1.11099245 6.09206826e-03
302 1 4.19385310 0.01551594 1.15634281 6.08473760e-03
303 1 4.30619208 0.01607884 1.20170576 6.07718969e-03
304 1 4.41819426 0.01651611 1.24840851 6.08430762e-03
305 1 4.52923515 0.01900269 1.29620166 6.08084602e-03
306 1 4.64016014 0.01997734 1.34435154 6.08857506e-03
307 1 4.75078378 0.02072567 1.39342970 6.09439460e-03
308 1 4.86121194 0.02168608 1.44327100 6.09360296e-03
309 1 4.97125259 0.02388519 1.49334419 6.10212083e-03
310 1 5.08078023 0.02489364 1.54423656 6.09455787e-03
311 1 5.19054278 0.02615454 1.59602664 6.08457013e-03
312 1 5.30007775 0.02769676 1.64839357 6.08334006e-03
313 1 5.40906113 0.02901055 1.70107791 6.09025173e-03
314 1 5.51801484 0.03003055 1.75457679 6.09206826e-03
315 1 5.62703399 0.03123670 1.80890852 6.09206826e-03
316 1 5.73533903 0.03276380 1.86339358 6.08838437e-03
317 1 5.84317715 0.03456053 1.91888074 6.09329454e-03
318 1 5.95069306 0.03510895 1.97458640 6.09400483e-03
319 1 6.05857515 0.03658590 2.03077773 6.08872179e-03
320 1 6.16626263 0.03814214 2.08744073 6.08812243e-03
321 1 6.27343690 0.03995597 2.14414850 6.09206826e-03
322 1 6.38037072 0.04130544 2.20200245 6.09206826e-03
323 1 6.48710237 0.04317285 2.26049634 6.09206826e-03
324 1 6.59343666 0.04456043 2.31901039 6.06302327e-03
325 1 6.69962578 0.04631102 2.37807957 6.06302327e-03
326 1 6.80566661 0.04787877 2.43743885 5.90236529e-03
327 1 6.91167857 0.04959844 2.49749783 5.81608564e-03
328 1 7.01755785 0.05148856 2.55783216 6.10035823e-03
329 1 7.12299230 0.05276245 2.61838191 5.08741347e-03
330 1 7.22891977 0.05427701 2.67914221 6.88423117e-03
331 1 7.33399566 0.05607421 2.74058966 4.95164977e-03
332 1 7.43893600 0.05774675 2.80172665 5.63292633e-03
333 1 7.54392903 0.05924095 2.86363390 5.95654755e-03
334 1 7.64881321 0.06088050 2.92574287 6.00432988e-03
335 1 7.75355164 0.06272225 2.98814117 6.08757506e-03
336 1 7.85806288 0.06441336 3.05083002 5.05700823e-03
337 1 7.96260834 0.06591458 3.11367062 6.83715280e-03
338 1 8.06692134 0.06780275 3.17669969 4.93632937e-03
339 1 8.17111271 0.06937426 3.24029135 5.62467055e-03
340 1 8.27508818 0.07094485 3.30382981 5.95386311e-03
341 1 8.37881674 0.07276460 3.36775247 6.00199927e-03
342 1 8.48266695 0.07453500 3.43195866 6.06987486e-03
343 1 8.58615200 0.07626868 3.49617761 5.01509653e-03
344 1 8.68986631 0.07814865 3.56069037 6.78511241e-03
345 1 8.79332307 0.07989145 3.62541373 4.92113473e-03
346 1 8.89660413 0.08166794 3.69049692 5.61645056e-03
347 1 8.99969765 0.08368768 3.75568679 5.95118153e-03
348 1 9.10286145 0.08545845 3.82095512 6.09206826e-03
349 1 9.20574911 0.08738727 3.88656975 6.09206826e-03
350 1 9.30873376 0.08923597 3.95214833 6.09206826e-03
351 1 9.41168577 0.09117689 4.01802012 6.50085567e-03
352 1 9.51451031 0.09307121 4.08393103 6.38496347e-03
353 1 9.61733983 0.09497292 4.15001330 5.77251663e-03
354 1 9.71998267 0.09690867 4.21616169 5.73476969e-03
355 1 9.82269926 0.09883933 4.28246373 5.94888879e-03
356 1 9.92528087 0.10068650 4.34883979 6.09206826e-03
357 1 10.02778088 0.10279587 4.41532007 6.09206826e-03
358 1 10.13024261 0.10474464 4.48198985 6.09206826e-03
359 1 10.23261714 0.10669744 4.54871149 6.09206826e-03
360 1 10.33485778 0.10877298 4.61556260 4.98457375e-03
361 1 10.43722867 0.11083111 4.68249858 6.69756871e-03
362 1 10.53953037 0.11291303 4.74952167 5.15375987e-03
363 1 10.64174531 0.11496365 4.81654528 4.95985007e-03
364 1 10.74397229 0.11703375 4.88362978 6.48212442e-03
365 1 10.84615948 0.11912744 4.95085135 5.14927068e-03
366 1 10.94831316 0.12126071 5.01807371 4.95341033e-03
367 1 11.05045347 0.12333012 5.08537476 6.46347279e-03
368 1 11.15258291 0.12552714 5.15268187 5.14043101e-03
369 1 11.25467498 0.12764456 5.22005396 4.91020010e-03
370 1 11.35681055 0.12981569 5.28744451 6.45556760e-03
371 1 11.45889615 0.13201382 5.35489173 4.90989307e-03
372 1 11.56097944 0.13419959 5.42235782 5.52395043e-03
373 1 11.66304943 0.13641700 5.48982157 5.87068470e-03
374 1 11.76513349 0.13862998 5.55729187 4.87920209e-03
375 1 11.86722872 0.14085888 5.62477113 6.41661913e-03
376 1 11.96930971 0.14311934 5.69228604 4.89988333e-03
377 1 12.07140743 0.14536310 5.75979869 5.51681014e-03
378 1 12.17350594 0.14762810 5.82730187 5.85936171e-03
379 1 12.27562352 0.14992778 5.89479031 4.85938456e-03
380 1 12.37777286 0.15222059 5.96229103 6.38254444e-03
381 1 12.47989597 0.15458595 6.02976309 4.88995824e-03
382 1 12.58205732 0.15691713 6.09719547 5.57476230e-03
383 1 12.68424235 0.15923157 6.16462154 5.93743790e-03
384 1 12.78645306 0.16166845 6.23203916 5.98766457e-03
385 1 12.88867141 0.16404151 6.29943966 5.96043235e-03
386 1 12.99094495 0.16637824 6.36676274 4.81637844e-03
387 1 13.09323769 0.16881517 6.43403735 6.34214196e-03
388 1 13.19553698 0.17121447 6.50133739 4.87620659e-03
389 1 13.29788794 0.17363807 6.56859917 5.56677439e-03
390 1 13.40026301 0.17611824 6.63580718 5.93477518e-03
391 1 13.50271541 0.17856068 6.70292989 5.98532808e-03
392 1 13.60517366 0.18100678 6.77003740 5.94249673e-03
393 1 13.70769254 0.18352029 6.83709659 4.79106117e-03
394 1 13.81023304 0.18604477 6.90404949 6.34873408e-03
395 1 13.91286359 0.18844157 6.97099622 5.10720957e-03
396 1 14.01553974 0.19105966 7.03784537 4.79385489e-03
397 1 14.11819996 0.19361700 7.10467517 6.33054845e-03
398 1 14.22090011 0.19622940 7.17133972 5.10009402e-03
399 1 14.32372956 0.19876997 7.23806938 4.78369059e-03
400 1 14.42648378 0.20126260 7.30462433 6.31203828e-03
401 1 14.52933406 0.20389504 7.37116493 5.09300092e-03
402 1 14.63233403 0.20647340 7.43764771 4.74903927e-03
403 1 14.73535450 0.20909017 7.50394177 6.32830758e-03
404 1 14.83827022 0.21168768 7.57024884 5.08343922e-03
405 1 14.94136175 0.21433311 7.63637195 4.32591159e-03
406 1 15.04451405 0.21707035 7.70251641 6.00104739e-03
407 1 15.14768113 0.21961030 7.76853392 5.21119202e-03
408 1 15.25101191 0.22239036 7.83458953 6.09206826e-03
409 1 15.35424382 0.22511597 7.90047062 6.05153388e-03
410 1 15.45764526 0.22775045 7.96629278 5.91774538e-03
411 1 15.56099167 0.23048680 8.03200786 6.22305381e-03
412 1 15.66446664 0.23314889 8.09755828 5.03791106e-03
413 1 15.76803126 0.23593105 8.16305231 4.72607940e-03
414 1 15.87156994 0.23859353 8.22844699 8.71836332e-03
415 1 15.97520755 0.24144251 8.29377430 5.95355142e-03
416 1 16.07889348 0.24415216 8.35904319 5.36960420e-03
417 1 16.18262619 0.24709892 8.42419009 6.03255871e-03
418 1 16.28645534 0.24983639 8.48926740 5.00245570e-03
419 1 16.39043232 0.25266757 8.55428152 4.70280803e-03
420 1 16.49439089 0.25535105 8.61906973 8.65685956e-03
421 1 16.59841466 0.25820827 8.68379521 5.94692135e-03
422 1 16.70240359 0.26109661 8.74848809 5.65886656e-03
423 1 16.80653404 0.26389909 8.81297858 5.98663784e-03
424 1 16.91084676 0.26673826 8.87741449 6.03862808e-03
425 1 17.01510745 0.26964024 8.94175473 6.08821513e-03
426 1 17.11935641 0.27247977 9.00596750 6.17296108e-03
427 1 17.22368978 0.27536445 9.07004308 6.04911048e-03
428 1 17.32812475 0.27813714 9.13412325 6.99423467e-03
429 1 17.43259530 0.28100432 9.19804529 6.49916941e-03
430 1 17.53708730 0.28395405 9.26189875 6.05139015e-03
431 1 17.64177868 0.28681446 9.32558615 6.07023001e-03
432 1 17.74639289 0.28980080 9.38929001 6.06423220e-03
433 1 17.85108565 0.29274457 9.45283663 6.03339671e-03
434 1 17.95576928 0.29574789 9.51632394 6.06123277e-03
435 1 18.06064225 0.29860658 9.57970146 6.05523286e-03
436 1 18.16551231 0.30163899 9.64296713 6.01539697e-03
437 1 18.27037791 0.30449114 9.70611270 6.05223237e-03
438 1 18.37528540 0.30753183 9.76925692 6.04623034e-03
439 1 18.48041491 0.31051935 9.83231824 5.99739088e-03
440 1 18.58543649 0.31350576 9.89516156 6.03386113e-03
441 1 18.69054278 0.31648525 9.95787660 6.06015229e-03
442 1 18.79579631 0.31952434 10.02059357 6.93292310e-03
443 1 18.90113730 0.32245935 10.08318425 6.60839364e-03
444 1 19.00645966 0.32550197 10.14565856 6.08325267e-03
445 1 19.11181823 0.32845188 10.20808133 5.98999100e-03
446 1 19.21719977 0.33144832 10.27034130 6.02220795e-03
447 1 19.32265676 0.33446070 10.33254921 5.94934321e-03
448 1 19.42816700 0.33757237 10.39466830 6.00521256e-03
449 1 19.53369028 0.34059921 10.45663823 5.96042100e-03
450 1 19.63934398 0.34359014 10.51862345 6.01327673e-03
451 1 19.74494427 0.34659173 10.58047412 6.06616825e-03
452 1 19.85063111 0.34966828 10.64225839 6.09206826e-03
453 1 19.95632687 0.35275881 10.70397383 6.22108889e-03
454 1 20.06203864 0.35582427 10.76560921 6.93510095e-03
455 1 20.16783122 0.35886788 10.82715601 6.55067958e-03
456 1 20.27371286 0.36195625 10.88865143 5.44215936e-03
457 1 20.37953543 0.36507020 10.95009004 5.52453627e-03
458 1 20.48541287 0.36809197 11.01141645 6.09206826e-03
459 1 20.59134789 0.37114720 11.07266888 5.52769247e-03
460 1 20.69727456 0.37424915 11.13387902 5.54504444e-03
461 1 20.80325814 0.37730944 11.19496150 6.09206826e-03
462 1 20.90931415 0.38043262 11.25605381 5.52433613e-03
463 1 21.01531689 0.38351257 11.31705380 5.54169116e-03
464 1 21.12139238 0.38653183 11.37801260 6.09959331e-03
465 1 21.22748869 0.38965327 11.43889990 5.37708140e-03
466 1 21.33356228 0.39275412 11.49975850 5.50601994e-03
467 1 21.43967056 0.39584033 11.56055837 6.09132348e-03
468 1 21.54583135 0.39894017 11.62132405 5.36406280e-03
469 1 21.65197305 0.40204790 11.68204394 5.50114066e-03
470 1 21.75814185 0.40513115 11.74275314 6.07613573e-03
471 1 21.86427912 0.40826133 11.80340007 5.86576563e-03
472 1 21.97045524 0.41136325 11.86403279 5.87763704e-03
473 1 22.07663885 0.41447238 11.92464414 5.79509293e-03
474 1 22.18278626 0.41759330 11.98522336 6.45795830e-03
475 1 22.28896568 0.42069505 12.04578353 6.36067877e-03
476 1 22.39512936 0.42381989 12.10632751 5.01672083e-03
477 1 0.12382772 1.20640722 -0.24448975 -5.06599779e-03
478 1 0.24799070 1.20503182 -0.24473558 -5.96099493e-03
479 1 0.37361034 1.20244148 -0.24153910 -6.06828787e-03
480 1 0.49930446 1.20334535 -0.23732488 -6.09081051e-03
481 1 0.62449180 1.20337548 -0.23041303 -6.09597885e-03
482 1 0.74957663 1.20395310 -0.22239017 -6.09677124e-03
483 1 0.87605974 1.20275067 -0.21153699 -6.09261604e-03
484 1 1.00123592 1.20407007 -0.19966347 -6.09210769e-03
485 1 1.12688636 1.20338697 -0.18408414 -6.09159289e-03
486 1 1.25092068 1.20394899 -0.16810118 -6.09258964e-03
487 1 1.37547608 1.20692320 -0.15174408 -6.11404233e-03
488 1 1.49905936 1.20774103 -0.13221502 -6.12924398e-03
489 1 1.62205201 1.20657559 -0.11168398 -6.13810471e-03
490 1 1.74531702 1.20737564 -0.09021926 -6.10740278e-03
491 1 1.86870889 1.20764496 -0.06636556 -6.11299929e-03
492 1 1.99137295 1.20875020 -0.03952407 -6.11651709e-03
493 1 2.11374062 1.20873736 -0.01419570 -6.10892752e-03
494 1 2.23583012 1.21148458 0.01401193 -6.08383817e-03
495 1 2.35774406 1.21311695 0.04401410 -6.07811671e-03
496 1 2.47817046 1.21339588 0.07571783 -6.12167487e-03
497 1 2.59841299 1.21331598 0.10755213 -6.12891596e-03
498 1 2.71892896 1.21525983 0.14042964 -6.13439434e-03
499 1 2.83916072 1.21701595 0.17586988 -6.11877956e-03
500 1 2.95866532 1.21702801 0.21188099 -6.09486572e-03
501 1 3.07758982 1.21891762 0.24886112 -6.09206826e-03
502 1 3.19697645 1.21988829 0.28726884 -6.09206855e-03
503 1 3.31486859 1.22085804 0.32681338 -6.09206932e-03
504 1 3.43174461 1.22219662 0.36699957 -6.11378764e-03
505 1 3.55037375 1.22484157 0.40848194 -6.10132488e-03
506 1 3.66646144 1.22627897 0.45074127 -6.14015253e-03
507 1 3.78286447 1.22686612 0.49332517 -6.18862768e-03
508 1 3.89826521 1.22878922 0.53788682 -6.20494803e-03
509 1 4.01404104 1.22995396 0.58201478 -6.16689241e-03
510 1 4.12894348 1.23114580 0.62772552 -6.13536340e-03
511 1 4.24404883 1.23227148 0.67366640 -6.09206826e-03
512 1 4.35858514 1.23348674 0.72038226 -6.09528258e-03
513 1 4.47329068 1.23538656 0.76775251 -6.10197805e-03
514 1 4.58779423 1.23642648 0.81615774 -6.09705471e-03
515 1 4.70120504 1.23816654 0.86532826 -6.06436498e-03
516 1 4.81476979 1.23896787 0.91584936 -6.12133674e-03
517 1 4.92736331 1.24082222 0.96612354 -6.20974613e-03
518 1 5.03998287 1.24267070 1.01734354 -6.24802334e-03
519 1 5.15189559 1.24432160 1.06934792 -6.19819175e-03
520 1 5.26404284 1.24502325 1.12210966 -6.15088270e-03
521 1 5.37588232 1.24667537 1.17554243 -6.13301438e-03
522 1 5.48694711 1.24897091 1.22949474 -6.10131989e-03
523 1 5.59815377 1.25037799 1.28422643 -6.05757291e-03
524 1 5.70870465 1.25238583 1.33929513 -6.04491082e-03
525 1 5.81847834 1.25366276 1.39524770 -6.05437557e-03
526 1 5.92872243 1.25582577 1.45142091 -6.06489385e-03
527 1 6.03813786 1.25768069 1.50798610 -6.09206826e-03
528 1 6.14728101 1.25957583 1.56532265 -6.09206826e-03
529 1 6.25623256 1.26071681 1.62319203 -6.09979510e-03
530 1 6.36474398 1.26245887 1.68142035 -6.12512692e-03
531 1 6.47329205 1.26451594 1.73996750 -6.16578501e-03
532 1 6.58139163 1.26579914 1.79932519 -6.26929389e-03
533 1 6.68897714 1.26753511 1.85852360 -6.28695529e-03
534 1 6.79711093 1.26979707 1.91808585 -6.28583704e-03
535 1 6.90451554 1.27125976 1.97821421 -6.23881179e-03
536 1 7.01191743 1.27308011 2.03902010 -6.30184580e-03
537 1 7.11875519 1.27493583 2.09996207 -6.28022129e-03
538 1 7.22550924 1.27682156 2.16115257 -6.24103982e-03
539 1 7.33224268 1.27874344 2.22267355 -6.33470904e-03
540 1 7.43863358 1.28007368 2.28492994 -6.28101331e-03