ITEM: TIMESTEP
0
ITEM: NUMBER OF ATOMS
10710
ITEM: BOX BOUNDS ff ff ff
-2.0 27.80709174404972
-2.0002904489085163 3.2101438916014597
-2.244725233180255 2.446249579634264
ITEM: ATOMS id type x y z q
1 2 0.00000000 0.00000000 0.24527477 3.35542180e-03
2 2 0.00000000 0.00000000 -0.24472523 -3.35542180e-03
3 2 0.00000000 1.21000000 0.24527477 3.41686920e-03
4 2 0.00000000 1.21000000 -0.24472523 -3.41686920e-03
5 1 25.80144317 -0.00029045 0.44544703 3.37776783e-03
6 1 25.80707171 0.00003621 -0.04452023 -3.37776783e-03
7 1 25.80146299 1.20971055 0.44624958 3.41686920e-03
8 1 25.80709174 1.21003368 -0.04371763 -3.41686920e-03
9 2 0.00000000 0.00000000 -0.12222523 0.00000000e+00
10 2 0.00000000 0.00000000 0.00027477 0.00000000e+00
11 2 0.00000000 0.00000000 0.12277477 0.00000000e+00
12 2 0.00000000 0.12100000 0.24527477 5.18139194e-03
13 2 0.00000000 0.24200000 0.24527477 5.50362000e-03
14 2 0.00000000 0.36300000 0.24527477 5.01501884e-03
15 2 0.00000000 0.48400000 0.24527477 5.50904170e-03
16 2 0.00000000 0.60500000 0.24527477 6.02408537e-03
17 2 0.00000000 0.72600000 0.24527477 6.86123120e-03
18 2 0.00000000 0.84700000 0.24527477 6.83241897e-03
19 2 0.00000000 0.96800000 0.24527477 5.84994208e-03
20 2 0.00000000 1.08900000 0.24527477 4.96878236e-03
21 2 0.00000000 1.21000000 -0.12222523 0.00000000e+00
22 2 0.00000000 1.21000000 0.00027477 0.00000000e+00
23 2 0.00000000 1.21000000 0.12277477 0.00000000e+00
24 2 0.00000000 0.12100000 -0.24472523 -5.18139194e-03
25 2 0.00000000 0.24200000 -0.24472523 -5.50362000e-03
26 2 0.00000000 0.36300000 -0.24472523 -5.01501884e-03
27 2 0.00000000 0.48400000 -0.24472523 -5.50904170e-03
28 2 0.00000000 0.60500000 -0.24472523 -6.02408537e-03
29 2 0.00000000 0.72600000 -0.24472523 -6.86123120e-03
30 2 0.00000000 0.84700000 -0.24472523 -6.83241897e-03
31 2 0.00000000 0.96800000 -0.24472523 -5.84994208e-03
32 2 0.00000000 1.08900000 -0.24472523 -4.96878236e-03
33 1 25.80566452 -0.00004556 0.07797144 0.00000000e+00
34 1 25.80425752 -0.00012718 0.20046323 0.00000000e+00
35 1 25.80285043 -0.00020883 0.32295513 0.00000000e+00
36 1 25.80144573 0.12070943 0.44552772 5.05002864e-03
37 1 25.80144813 0.24170953 0.44560834 5.64089052e-03
38 1 25.80145041 0.36270962 0.44568899 5.44128437e-03
39 1 25.80145263 0.48370989 0.44576927 6.40224548e-03
40 1 25.80145466 0.60471005 0.44584983 6.88148315e-03
41 1 25.80145662 0.72571015 0.44593012 6.11583422e-03
42 1 25.80145838 0.84671029 0.44601001 5.69198232e-03
43 1 25.80146003 0.96771039 0.44608997 6.01735171e-03
44 1 25.80146152 1.08871057 0.44616986 5.43527194e-03
45 1 25.80568459 1.20995292 0.07877399 0.00000000e+00
46 1 25.80427747 1.20987204 0.20126586 0.00000000e+00
47 1 25.80287037 1.20979129 0.32375766 0.00000000e+00
48 1 25.80707400 0.12103589 -0.04443969 -5.05002864e-03
49 1 25.80707664 0.24203569 -0.04435895 -5.64089052e-03
50 1 25.80707889 0.36303553 -0.04427837 -5.44128437e-03
51 1 25.80708105 0.48403532 -0.04419790 -6.40224548e-03
52 1 25.80708313 0.60503499 -0.04411754 -6.88148315e-03
53 1 25.80708532 0.72603468 -0.04403739 -6.11583422e-03
54 1 25.80708691 0.84703433 -0.04395738 -5.69198232e-03
55 1 25.80708859 0.96803407 -0.04387748 -6.01735171e-03
56 1 25.80708993 1.08903389 -0.04379760 -5.43527194e-03
57 1 0.12232697 0.00008331 -0.24472314 -4.80862070e-03
58 1 0.24465553 0.00015687 -0.24470103 -5.62714142e-03
59 1 0.36699187 0.00018223 -0.24467806 -6.00619986e-03
60 1 0.48933713 0.00019497 -0.24465166 -6.09052560e-03
61 1 0.61167993 0.00020464 -0.24460649 -6.09206826e-03
62 1 0.73402862 0.00022044 -0.24455633 -5.94781856e-03
63 1 0.85637830 0.00023706 -0.24448898 -5.82025544e-03
64 1 0.97872359 0.00022494 -0.24436891 -5.95871849e-03
65 1 1.10108574 0.00022966 -0.24426047 -6.09232315e-03
66 1 1.22343611 0.00022197 -0.24414537 -6.09205550e-03
67 1 1.34577741 0.00022271 -0.24400813 -6.08598370e-03
68 1 1.46812932 0.00023483 -0.24383655 -6.07933546e-03
69 1 1.59047830 0.00023337 -0.24368108 -6.08488133e-03
70 1 1.71282546 0.00023235 -0.24348754 -6.08161608e-03
71 1 1.83517260 0.00023386 -0.24328647 -6.08881076e-03
72 1 1.95753396 0.00022869 -0.24306360 -6.09207793e-03
73 1 2.07988635 0.00022731 -0.24282962 -6.09206431e-03
74 1 2.20224234 0.00023936 -0.24256972 -6.09206920e-03
75 1 2.32459388 0.00023588 -0.24230297 -6.09206749e-03
76 1 2.44693696 0.00023422 -0.24202517 -6.09206826e-03
77 1 2.56927748 0.00023113 -0.24173787 -6.09206901e-03
78 1 2.69163011 0.00021139 -0.24143893 -6.08547783e-03
79 1 2.81398045 0.00021630 -0.24112567 -6.07797420e-03
80 1 2.93632479 0.00023535 -0.24079109 -6.08460882e-03
81 1 3.05867029 0.00022781 -0.24044565 -6.08123045e-03
82 1 3.18101103 0.00023020 -0.24008997 -6.08867780e-03
83 1 3.30335095 0.00023067 -0.23971962 -6.09206866e-03
84 1 3.42569463 0.00023306 -0.23933245 -6.09206839e-03
85 1 3.54803142 0.00022300 -0.23893793 -6.09206833e-03
86 1 3.67037354 0.00021230 -0.23852605 -6.09206826e-03
87 1 3.79272424 0.00021941 -0.23810812 -6.09206824e-03
88 1 3.91506239 0.00022270 -0.23768039 -6.09206825e-03
89 1 4.03740622 0.00021480 -0.23724441 -6.10477040e-03
90 1 4.15974786 0.00023086 -0.23679764 -6.10144793e-03
91 1 4.28208022 0.00023484 -0.23633212 -6.09206826e-03
92 1 4.40442478 0.00023339 -0.23586305 -6.08473760e-03
93 1 4.52675835 0.00022861 -0.23538157 -6.07718969e-03
94 1 4.64909323 0.00023570 -0.23487991 -6.08430762e-03
95 1 4.77142920 0.00024127 -0.23437315 -6.08084602e-03
96 1 4.89377174 0.00023741 -0.23385745 -6.08857506e-03
97 1 5.01611255 0.00024310 -0.23332797 -6.09439460e-03
98 1 5.13845245 0.00023391 -0.23278422 -6.09360296e-03
99 1 5.26079080 0.00023601 -0.23222018 -6.10212083e-03
100 1 5.38312848 0.00022929 -0.23165798 -6.09455787e-03
101 1 5.50545595 0.00024262 -0.23109141 -6.08457013e-03
102 1 5.62778289 0.00024597 -0.23051095 -6.08334006e-03
103 1 5.75012798 0.00024551 -0.22991550 -6.09025173e-03
104 1 5.87245307 0.00024693 -0.22931098 -6.09206826e-03
105 1 5.99478492 0.00024969 -0.22869837 -6.09206826e-03
106 1 6.11711602 0.00025713 -0.22807177 -6.08838437e-03
107 1 6.23944117 0.00025748 -0.22743377 -6.09329454e-03
108 1 6.36177541 0.00024769 -0.22679309 -6.09400483e-03
109 1 6.48410975 0.00025419 -0.22614083 -6.08872179e-03
110 1 6.60644440 0.00025651 -0.22547014 -6.08812243e-03
111 1 6.72876529 0.00026086 -0.22479692 -6.09206826e-03
112 1 6.85109698 0.00026580 -0.22412487 -6.09206826e-03
113 1 6.97342014 0.00026439 -0.22343775 -6.09206826e-03
114 1 7.09574347 0.00027143 -0.22272839 -6.06302327e-03
115 1 7.21807175 0.00026250 -0.22201536 -6.06302327e-03
116 1 7.34040382 0.00026203 -0.22128856 -5.90236529e-03
117 1 7.46272691 0.00026632 -0.22055293 -5.81608564e-03
118 1 7.58504899 0.00026499 -0.21981816 -6.10035823e-03
119 1 7.70737809 0.00026593 -0.21907395 -5.08741334e-03
120 1 7.82970095 0.00026926 -0.21832274 -6.87719096e-03
121 1 7.95201972 0.00028149 -0.21756316 -5.18694999e-03
122 1 8.07435280 0.00027106 -0.21679949 -5.00655937e-03
123 1 8.19667565 0.00027226 -0.21600808 -7.17602109e-03
124 1 8.31899666 0.00028187 -0.21522002 -5.64123658e-03
125 1 8.44132503 0.00028770 -0.21442851 -5.91249038e-03
126 1 8.56363665 0.00028515 -0.21362290 -5.77202514e-03
127 1 8.68595169 0.00029064 -0.21281136 -5.95689302e-03
128 1 8.80827636 0.00029405 -0.21199473 -6.09206826e-03
129 1 8.93060226 0.00028607 -0.21116612 -6.09206826e-03
130 1 9.05292317 0.00028738 -0.21032886 -6.09206826e-03
131 1 9.17524037 0.00029185 -0.20948475 -6.00199927e-03
132 1 9.29756223 0.00030610 -0.20863559 -6.06987486e-03
133 1 9.41988441 0.00030716 -0.20777286 -5.02835518e-03
134 1 9.54220104 0.00030770 -0.20690279 -6.79157831e-03
135 1 9.66451335 0.00031973 -0.20602670 -4.92113473e-03
136 1 9.78683806 0.00031333 -0.20514250 -5.56259368e-03
137 1 9.90916086 0.00030481 -0.20424516 -5.94323360e-03
138 1 10.03148357 0.00030880 -0.20333613 -5.00637084e-03
139 1 10.15379118 0.00030134 -0.20242948 -6.75640181e-03
140 1 10.27610610 0.00029640 -0.20151843 -4.91035923e-03
141 1 10.39841844 0.00029549 -0.20059091 -5.75765677e-03
142 1 10.52073370 0.00029285 -0.19966110 -6.37465021e-03
143 1 10.64304813 0.00029587 -0.19872816 -6.33172667e-03
144 1 10.76536031 0.00029646 -0.19778721 -5.77695765e-03
145 1 10.88767761 0.00030390 -0.19684071 -5.75602868e-03
146 1 11.00998925 0.00030112 -0.19588676 -5.94989338e-03
147 1 11.13229813 0.00029717 -0.19491653 -6.09206826e-03
148 1 11.25461167 0.00030284 -0.19394509 -6.09206826e-03
149 1 11.37692620 0.00029571 -0.19296138 -6.49862787e-03
150 1 11.49924165 0.00030056 -0.19197217 -6.47806478e-03
151 1 11.62155479 0.00029566 -0.19097837 -5.98398651e-03
152 1 11.74387056 0.00030201 -0.18997832 -5.97118729e-03
153 1 11.86618206 0.00029514 -0.18897732 -6.32827249e-03
154 1 11.98849336 0.00029714 -0.18796662 -6.38296841e-03
155 1 12.11080651 0.00030434 -0.18695115 -6.09206826e-03
156 1 12.23311718 0.00029620 -0.18592092 -5.92176613e-03
157 1 12.35542574 0.00029991 -0.18489285 -5.84196899e-03
158 1 12.47772758 0.00029874 -0.18385504 -5.89327746e-03
159 1 12.60003979 0.00030093 -0.18280434 -4.96011300e-03
160 1 12.72234400 0.00029949 -0.18175025 -6.65158567e-03
161 1 12.84464954 0.00030269 -0.18068957 -4.90989307e-03
162 1 12.96696305 0.00030195 -0.17963003 -5.52395043e-03
163 1 13.08927060 0.00030410 -0.17856243 -5.87068470e-03
164 1 13.21157403 0.00030388 -0.17748936 -4.88602194e-03
165 1 13.33387737 0.00030680 -0.17640928 -6.40279006e-03
166 1 13.45618202 0.00030471 -0.17532448 -5.12407601e-03
167 1 13.57848618 0.00030263 -0.17423127 -4.88216806e-03
168 1 13.70078997 0.00029908 -0.17313373 -6.38017819e-03
169 1 13.82309260 0.00030660 -0.17203190 -5.11373203e-03
170 1 13.94539548 0.00030428 -0.17092446 -4.85398664e-03
171 1 14.06770229 0.00030317 -0.16981024 -6.35577596e-03
172 1 14.19000116 0.00031067 -0.16868937 -5.10698016e-03
173 1 14.31230712 0.00030443 -0.16756899 -4.85870271e-03
174 1 14.43460888 0.00030549 -0.16643257 -6.37702085e-03
175 1 14.55691142 0.00029774 -0.16529730 -5.10092274e-03
176 1 14.67921264 0.00029999 -0.16415582 -4.84968636e-03
177 1 14.80150961 0.00029992 -0.16300544 -6.37599125e-03
178 1 14.92380970 0.00030102 -0.16185302 -4.87710407e-03
179 1 15.04611032 0.00030292 -0.16069543 -5.56677439e-03
180 1 15.16841422 0.00029734 -0.15953425 -5.93477518e-03
181 1 15.29071515 0.00029948 -0.15836525 -6.09206826e-03
182 1 15.41301628 0.00029605 -0.15719187 -6.09206826e-03
183 1 15.53531372 0.00029550 -0.15601476 -5.98211588e-03
184 1 15.65761143 0.00029295 -0.15483274 -5.88223740e-03
185 1 15.77991311 0.00029496 -0.15364180 -5.93479953e-03
186 1 15.90221289 0.00028833 -0.15244862 -4.77734034e-03
187 1 16.02450872 0.00028831 -0.15125058 -6.31776323e-03
188 1 16.14680417 0.00029092 -0.15005199 -4.85845554e-03
189 1 16.26910131 0.00028952 -0.14884676 -5.48045656e-03
190 1 16.39139700 0.00028679 -0.14763648 -5.74774533e-03
191 1 16.51369022 0.00028402 -0.14642012 -5.91938606e-03
192 1 16.63598856 0.00028185 -0.14519625 -4.72601755e-03
193 1 16.75828558 0.00028389 -0.14396990 -6.44309587e-03
194 1 16.88057829 0.00028328 -0.14274142 -5.21392668e-03
195 1 17.00287278 0.00028123 -0.14151267 -4.32492230e-03
196 1 17.12516669 0.00027676 -0.14027476 -6.11554878e-03
197 1 17.24745884 0.00027382 -0.13903063 -5.20526136e-03
198 1 17.36975674 0.00027249 -0.13778549 -4.31230685e-03
199 1 17.49204610 0.00026819 -0.13653592 -6.11716232e-03
200 1 17.61433691 0.00027133 -0.13527682 -5.69773107e-03
201 1 17.73663078 0.00026570 -0.13401652 -5.99314584e-03
202 1 17.85892391 0.00026604 -0.13275367 -4.76350900e-03
203 1 17.98121349 0.00026431 -0.13148295 -5.21120302e-03
204 1 18.10350586 0.00026343 -0.13021144 -6.01204532e-03
205 1 18.22579426 0.00025989 -0.12893527 -5.73233737e-03
206 1 18.34808836 0.00025064 -0.12765469 -5.81943467e-03
207 1 18.47037627 0.00025191 -0.12636805 -6.32655047e-03
208 1 18.59266897 0.00024692 -0.12507967 -5.03614005e-03
209 1 18.71495613 0.00024313 -0.12379055 -4.70280803e-03
210 1 18.83724461 0.00023937 -0.12249030 -8.65683464e-03
211 1 18.95953372 0.00024016 -0.12118971 -5.94692004e-03
212 1 19.08181954 0.00023917 -0.11988574 -5.65885778e-03
213 1 19.20411017 0.00023689 -0.11858119 -5.99277035e-03
214 1 19.32639721 0.00023132 -0.11727092 -6.04066598e-03
215 1 19.44868129 0.00022755 -0.11595909 -6.09206826e-03
216 1 19.57097073 0.00022907 -0.11464088 -6.09206826e-03
217 1 19.69325450 0.00022583 -0.11332034 -6.09206826e-03
218 1 19.81554110 0.00021907 -0.11199800 -5.94140402e-03
219 1 19.93782620 0.00021515 -0.11067200 -6.09135703e-03
220 1 20.06011041 0.00021289 -0.10934269 -6.09135703e-03
221 1 20.18239773 0.00020822 -0.10801068 -6.09206826e-03
222 1 20.30468150 0.00020492 -0.10667536 -6.22362401e-03
223 1 20.42696275 0.00020493 -0.10533824 -6.30618064e-03
224 1 20.54924687 0.00020029 -0.10399775 -6.16079228e-03
225 1 20.67152939 0.00019528 -0.10265502 -6.90076158e-03
226 1 20.79381126 0.00019168 -0.10130797 -7.19612184e-03
227 1 20.91609450 0.00018753 -0.09996005 -6.17999120e-03
228 1 21.03837625 0.00018530 -0.09860834 -5.85545161e-03
229 1 21.16065720 0.00018148 -0.09725607 -6.04373412e-03
230 1 21.28293963 0.00017917 -0.09589893 -6.05837687e-03
231 1 21.40522096 0.00017388 -0.09454100 -6.22625934e-03
232 1 21.52750031 0.00016822 -0.09318030 -6.96326852e-03
233 1 21.64978145 0.00016466 -0.09181839 -6.60839364e-03
234 1 21.77205975 0.00016240 -0.09045133 -6.08325267e-03
235 1 21.89433845 0.00015901 -0.08908126 -5.98999100e-03
236 1 22.01661777 0.00015633 -0.08771115 -6.02220795e-03
237 1 22.13889654 0.00015037 -0.08633818 -5.94934321e-03
238 1 22.26117539 0.00014610 -0.08496287 -6.23085673e-03
239 1 22.38345229 0.00014267 -0.08358543 -5.91383044e-03
240 1 22.50573081 0.00013978 -0.08220781 -5.82022831e-03
241 1 22.62800645 0.00013483 -0.08082822 -6.06616825e-03
242 1 22.75028352 0.00012889 -0.07944532 -6.09206826e-03
243 1 22.87255835 0.00012552 -0.07806168 -6.22108889e-03
244 1 22.99483413 0.00012474 -0.07667740 -6.93510095e-03
245 1 23.11710882 0.00012167 -0.07528934 -6.55067958e-03
246 1 23.23938503 0.00011773 -0.07390249 -5.44215936e-03
247 1 23.36165850 0.00011466 -0.07251294 -5.52453627e-03
248 1 23.48393345 0.00011182 -0.07112216 -6.11677386e-03
249 1 23.60620600 0.00010739 -0.06973037 -5.40422112e-03
250 1 23.72847987 0.00010210 -0.06833695 -5.51625079e-03
251 1 23.85075336 0.00009821 -0.06694146 -6.10817079e-03
252 1 23.97302592 0.00009367 -0.06554529 -5.39058303e-03
253 1 24.09529770 0.00009021 -0.06414807 -5.51111698e-03
254 1 24.21757016 0.00008534 -0.06275022 -6.09959331e-03
255 1 24.33984166 0.00008108 -0.06135193 -5.37708140e-03
256 1 24.46211301 0.00007915 -0.05995218 -5.50601994e-03
257 1 24.58438395 0.00007485 -0.05855225 -6.09132348e-03
258 1 24.70665447 0.00007064 -0.05715126 -5.36406280e-03
259 1 24.82892477 0.00006725 -0.05574918 -5.50114066e-03
260 1 24.95119402 0.00006305 -0.05434670 -6.07613573e-03
261 1 25.07346348 0.00005927 -0.05294375 -5.86576563e-03
262 1 25.19573214 0.00005479 -0.05154034 -5.87763703e-03
263 1 25.31800118 0.00005082 -0.05013694 -5.79509293e-03
264 1 25.44026910 0.00004710 -0.04873287 -6.45795830e-03
265 1 25.56253704 0.00004318 -0.04732877 -6.36067877e-03
266 1 25.68480447 0.00003951 -0.04592470 -5.01672083e-03
267 1 0.12229061 0.00001145 0.24523229 4.80862070e-03
268 1 0.24457970 0.00002420 0.24521716 5.62714142e-03
269 1 0.36687539 0.00004053 0.24522059 6.00619986e-03
270 1 0.48917015 0.00004972 0.24526289 6.09052560e-03
271 1 0.61145246 0.00004617 0.24529867 6.09206826e-03
272 1 0.73374292 0.00003548 0.24535757 5.94781856e-03
273 1 0.85603398 0.00003152 0.24544086 5.82025544e-03
274 1 0.97831741 0.00003728 0.24552410 5.95871849e-03
275 1 1.10060223 0.00003493 0.24563465 6.09232315e-03
276 1 1.22289497 0.00003048 0.24576978 6.09205550e-03
277 1 1.34518086 0.00003511 0.24590034 6.08598370e-03
278 1 1.46747400 0.00002791 0.24604676 6.07933546e-03
279 1 1.58976949 0.00002333 0.24622511 6.08488133e-03
280 1 1.71205124 0.00002833 0.24640354 6.08161608e-03
281 1 1.83434032 0.00001673 0.24661137 6.08881076e-03
282 1 1.95663921 0.00001311 0.24683419 6.09207793e-03
283 1 2.07891176 0.00001320 0.24706542 6.09206431e-03
284 1 2.20120899 0.00001626 0.24731498 6.09206920e-03
285 1 2.32350203 0.00001023 0.24758918 6.09206749e-03
286 1 2.44580228 0.00001115 0.24786964 6.09206826e-03
287 1 2.56809830 0.00001293 0.24815581 6.09206901e-03
288 1 2.69039382 0.00001316 0.24846796 6.08547783e-03
289 1 2.81268151 0.00001972 0.24877895 6.07797420e-03
290 1 2.93497544 0.00001756 0.24911858 6.08460882e-03
291 1 3.05726882 0.00002087 0.24946152 6.08123045e-03
292 1 3.17956644 0.00002174 0.24982260 6.08867780e-03
293 1 3.30184984 0.00002005 0.25018737 6.09206866e-03
294 1 3.42414131 0.00000875 0.25057234 6.09206839e-03
295 1 3.54643292 0.00001568 0.25096551 6.09206833e-03
296 1 3.66872723 0.00001017 0.25136860 6.09206826e-03
297 1 3.79102648 0.00000256 0.25179185 6.09206824e-03
298 1 3.91331240 0.00000036 0.25221703 6.09206825e-03
299 1 4.03561047 0.00000474 0.25265975 6.10477040e-03
300 1 4.15789762 0.00001253 0.25311373 6.10144793e-03
301 1 4.28019773 0.00001684 0.25358095 6.09206826e-03
302 1 4.40249535 0.00002011 0.25405414 6.08473760e-03
303 1 4.52479166 0.00001245 0.25452333 6.07718969e-03
304 1 4.64709051 0.00000072 0.25501685 6.08430762e-03
305 1 4.76937964 0.00001289 0.25552599 6.08084602e-03
306 1 4.89167492 0.00000840 0.25604356 6.08857506e-03
307 1 5.01396700 -0.00000047 0.25658127 6.09439460e-03
308 1 5.13626114 -0.00000170 0.25712444 6.09360296e-03
309 1 5.25854755 0.00001241 0.25767566 6.10212083e-03
310 1 5.38083654 0.00001234 0.25824046 6.09455787e-03
311 1 5.50313423 0.00001188 0.25881479 6.08457013e-03
312 1 5.62543065 0.00002305 0.25939944 6.08334006e-03
313 1 5.74771657 0.00002116 0.25999654 6.09025173e-03
314 1 5.87001014 0.00001700 0.26059837 6.09206826e-03
315 1 5.99230757 0.00001542 0.26121249 6.09206826e-03
316 1 6.11459286 0.00001543 0.26183198 6.08838437e-03
317 1 6.23688633 0.00002005 0.26247332 6.09329454e-03
318 1 6.35917209 0.00000808 0.26312314 6.09400483e-03
319 1 6.48146538 0.00000845 0.26377535 6.08872179e-03
320 1 6.60375988 0.00000899 0.26443279 6.08812243e-03
321 1 6.72604812 0.00001215 0.26509526 6.09206826e-03
322 1 6.84833904 0.00000813 0.26578093 6.09206826e-03
323 1 6.97063116 0.00001568 0.26647887 6.09206826e-03
324 1 7.09291761 0.00001519 0.26718251 6.06302327e-03
325 1 7.21520581 0.00001717 0.26789890 6.06302327e-03
326 1 7.33749529 0.00002015 0.26862247 5.90236529e-03
327 1 7.45979114 0.00002359 0.26936087 5.81608564e-03
328 1 7.58208864 0.00003231 0.27009993 6.10035823e-03
329 1 7.70438049 0.00002910 0.27084620 5.08741347e-03
330 1 7.82667496 0.00002109 0.27158589 6.88423117e-03
331 1 7.94896026 0.00002624 0.27235478 4.95164977e-03
332 1 8.07124284 0.00002993 0.27312215 5.63292633e-03
333 1 8.19353105 0.00002678 0.27390483 5.95654755e-03
334 1 8.31582005 0.00002636 0.27469485 6.00432988e-03
335 1 8.43810834 0.00002910 0.27549514 6.08757506e-03
336 1 8.56039706 0.00003042 0.27629958 5.05700823e-03
337 1 8.68268983 0.00002377 0.27710434 6.83715280e-03
338 1 8.80497594 0.00002978 0.27791801 4.93632937e-03
339 1 8.92726625 0.00002752 0.27875174 5.62467055e-03
340 1 9.04955136 0.00002466 0.27958443 5.95386311e-03
341 1 9.17183387 0.00002693 0.28043483 6.00199927e-03
342 1 9.29412592 0.00002599 0.28128943 6.06987486e-03
343 1 9.41640837 0.00002472 0.28214816 5.01509653e-03
344 1 9.53869822 0.00002484 0.28301396 6.78511241e-03
345 1 9.66098524 0.00002191 0.28388902 4.92113473e-03
346 1 9.78327351 0.00002245 0.28477870 5.61645056e-03
347 1 9.90555546 0.00002751 0.28567839 5.95118153e-03
348 1 10.02784535 0.00002285 0.28657700 6.09206826e-03
349 1 10.15012845 0.00002626 0.28749405 6.09206826e-03
350 1 10.27241245 0.00002101 0.28840648 6.09206826e-03
351 1 10.39470442 0.00001891 0.28932945 6.50085567e-03
352 1 10.51699040 0.00001370 0.29025839 6.38496347e-03
353 1 10.63928005 0.00001207 0.29119618 5.77251663e-03
354 1 10.76156630 0.00001194 0.29213699 5.73476969e-03
355 1 10.88385479 0.00000806 0.29308506 5.94888879e-03
356 1 11.00614052 0.00000368 0.29404169 6.09206826e-03
357 1 11.12842222 0.00000919 0.29500433 6.09206826e-03
358 1 11.25070912 0.00000832 0.29597885 6.09206826e-03
359 1 11.37299189 0.00000531 0.29696040 6.09206826e-03
360 1 11.49527345 0.00000862 0.29795226 4.98457375e-03
361 1 11.61756346 0.00000318 0.29894364 6.69756871e-03
362 1 11.73985214 0.00000253 0.29994205 5.15375987e-03
363 1 11.86213524 0.00000122 0.30094883 4.95985007e-03
364 1 11.98441960 -0.00000244 0.30195724 6.48212442e-03
365 1 12.10670340 -0.00000262 0.30298006 5.14927068e-03
366 1 12.22898634 0.00000153 0.30400755 4.95341033e-03
367 1 12.35127192 -0.00000528 0.30504517 6.46347279e-03
368 1 12.47355288 0.00000111 0.30607814 5.14043101e-03
369 1 12.59583553 -0.00000413 0.30712944 4.91020010e-03
370 1 12.71812426 -0.00000258 0.30817789 6.45556760e-03
371 1 12.84040862 -0.00000225 0.30923656 4.90989307e-03
372 1 12.96269181 -0.00000473 0.31030222 5.52395043e-03
373 1 13.08497454 -0.00000251 0.31136981 5.87068470e-03
374 1 13.20725407 -0.00000406 0.31244510 4.87920209e-03
375 1 13.32953634 -0.00001104 0.31352268 6.41661913e-03
376 1 13.45181677 -0.00001082 0.31460977 4.89988333e-03
377 1 13.57410270 -0.00001109 0.31570099 5.51681014e-03
378 1 13.69638729 -0.00001259 0.31679916 5.85936171e-03
379 1 13.81866485 -0.00001704 0.31790397 4.85938456e-03
380 1 13.94094710 -0.00001709 0.31900884 6.38254444e-03
381 1 14.06322781 -0.00002083 0.32012209 4.88995824e-03
382 1 14.18550853 -0.00002025 0.32124518 5.57476230e-03
383 1 14.30778785 -0.00001412 0.32237113 5.93743790e-03
384 1 14.43006409 -0.00002023 0.32350577 5.98766457e-03
385 1 14.55234275 -0.00001877 0.32463943 5.96043235e-03
386 1 14.67462326 -0.00001762 0.32578327 4.81637844e-03
387 1 14.79690772 -0.00001857 0.32693559 6.34214196e-03
388 1 14.91918821 -0.00001867 0.32808300 4.87620659e-03
389 1 15.04146936 -0.00001952 0.32923949 5.56677439e-03
390 1 15.16374768 -0.00002545 0.33039996 5.93477518e-03
391 1 15.28602354 -0.00002688 0.33156601 5.98532808e-03
392 1 15.40830348 -0.00002544 0.33273954 5.94249673e-03
393 1 15.53058211 -0.00003079 0.33391776 4.79106117e-03
394 1 15.65285940 -0.00003534 0.33510418 6.34873408e-03
395 1 15.77513530 -0.00003151 0.33629303 5.10720957e-03
396 1 15.89741493 -0.00003563 0.33748856 4.79385489e-03
397 1 16.01969564 -0.00004387 0.33868519 6.33054845e-03
398 1 16.14197664 -0.00004486 0.33988687 5.10009402e-03
399 1 16.26425148 -0.00004584 0.34109503 4.78369059e-03
400 1 16.38653190 -0.00004593 0.34230391 6.31203828e-03
401 1 16.50880831 -0.00004599 0.34351811 5.09300092e-03
402 1 16.63108342 -0.00004480 0.34473869 4.74903927e-03
403 1 16.75336028 -0.00004670 0.34596567 6.32830758e-03
404 1 16.87563937 -0.00004958 0.34719393 5.08343922e-03
405 1 16.99791743 -0.00005264 0.34843145 4.32591159e-03
406 1 17.12019235 -0.00005975 0.34966489 6.00104739e-03
407 1 17.24247042 -0.00005954 0.35090883 5.21119202e-03
408 1 17.36474196 -0.00006649 0.35215501 6.09206826e-03
409 1 17.48702008 -0.00007083 0.35340557 6.05153388e-03
410 1 17.60929279 -0.00007060 0.35465973 5.91774538e-03
411 1 17.73157084 -0.00007586 0.35592045 6.22305381e-03
412 1 17.85384752 -0.00007562 0.35718867 5.03791106e-03
413 1 17.97612116 -0.00007921 0.35845721 4.72607940e-03
414 1 18.09839725 -0.00008152 0.35972860 8.71836332e-03
415 1 18.22067306 -0.00008864 0.36100547 5.95355142e-03
416 1 18.34294737 -0.00008825 0.36228642 5.36960420e-03
417 1 18.46522103 -0.00009413 0.36357208 6.03255871e-03
418 1 18.58749483 -0.00009565 0.36485853 5.00245570e-03
419 1 18.70976719 -0.00010077 0.36615039 4.70280803e-03
420 1 18.83204208 -0.00010023 0.36744740 8.65685956e-03
421 1 18.95431550 -0.00010204 0.36875149 5.94692135e-03
422 1 19.07659023 -0.00010816 0.37005465 5.65886656e-03
423 1 19.19886617 -0.00011178 0.37136264 5.98663784e-03
424 1 19.32113772 -0.00011428 0.37267539 6.03862808e-03
425 1 19.44340995 -0.00011824 0.37398824 6.08821513e-03
426 1 19.56568504 -0.00012125 0.37530433 6.17296108e-03
427 1 19.68795964 -0.00012555 0.37662486 6.04911048e-03
428 1 19.81023266 -0.00012571 0.37794709 6.99423467e-03
429 1 19.93250639 -0.00012769 0.37927322 6.49916941e-03
430 1 20.05477941 -0.00013153 0.38060467 6.05139015e-03
431 1 20.17705012 -0.00013286 0.38194039 6.07023001e-03
432 1 20.29932290 -0.00013772 0.38327330 6.06423220e-03
433 1 20.42159578 -0.00014129 0.38461159 6.03339671e-03
434 1 20.54386878 -0.00014556 0.38595091 6.06123277e-03
435 1 20.66613984 -0.00014634 0.38729336 6.05523286e-03
436 1 20.78841167 -0.00015129 0.38863917 6.01539697e-03
437 1 20.91068471 -0.00015420 0.38998860 6.05223237e-03
438 1 21.03295748 -0.00015907 0.39133890 6.04623034e-03
439 1 21.15522604 -0.00016129 0.39269298 5.99739088e-03
440 1 21.27749818 -0.00016532 0.39404987 6.03386113e-03
441 1 21.39976989 -0.00016848 0.39540942 6.06015229e-03
442 1 21.52203935 -0.00017244 0.39677076 6.93292310e-03
443 1 21.64430855 -0.00017629 0.39813455 6.60839364e-03
444 1 21.76657857 -0.00018068 0.39950199 6.08325267e-03
445 1 21.88884874 -0.00018317 0.40086950 5.98999100e-03
446 1 22.01111974 -0.00018647 0.40224074 6.02220795e-03
447 1 22.13339006 -0.00018959 0.40361392 5.94934321e-03
448 1 22.25566058 -0.00019490 0.40498954 6.00521256e-03
449 1 22.37793173 -0.00019723 0.40636795 5.96042100e-03
450 1 22.50020042 -0.00020043 0.40774748 6.01327673e-03
451 1 22.62247086 -0.00020226 0.40912861 6.06616825e-03
452 1 22.74474061 -0.00020641 0.41051080 6.09206826e-03
453 1 22.86701020 -0.00021020 0.41189427 6.22108889e-03
454 1 22.98928004 -0.00021384 0.41327939 6.93510095e-03
455 1 23.11154881 -0.00021714 0.41466652 6.55067958e-03
456 1 23.23381672 -0.00022043 0.41605604 5.44215936e-03
457 1 23.35608604 -0.00022482 0.41744485 5.52453627e-03
458 1 23.47835552 -0.00022795 0.41883546 6.09206826e-03
459 1 23.60062415 -0.00023121 0.42022860 5.52769247e-03
460 1 23.72289243 -0.00023456 0.42162241 5.54504444e-03
461 1 23.84516131 -0.00023750 0.42301808 6.09206826e-03
462 1 23.96742873 -0.00024150 0.42441507 5.52433613e-03
463 1 24.08969785 -0.00024474 0.42581243 5.54169116e-03
464 1 24.21196566 -0.00024670 0.42721060 6.09959331e-03
465 1 24.33423376 -0.00025067 0.42861012 5.37708140e-03
466 1 24.45650227 -0.00025387 0.43001001 5.50601994e-03
467 1 24.57877046 -0.00025714 0.43141086 6.09132348e-03
468 1 24.70103787 -0.00026039 0.43281279 5.36406280e-03
469 1 24.82330563 -0.00026373 0.43421507 5.50114066e-03
470 1 24.94557294 -0.00026682 0.43561760 6.07613573e-03
471 1 25.06784083 -0.00027048 0.43702095 5.86576563e-03
472 1 25.19010796 -0.00027360 0.43842477 5.87763704e-03
473 1 25.31237509 -0.00027697 0.43982886 5.79509293e-03
474 1 25.43464239 -0.00028045 0.44123323 6.45795830e-03
475 1 25.55690938 -0.00028378 0.44263770 6.36067877e-03
476 1 25.67917625 -0.00028710 0.44404238 5.01672083e-03
477 1 0.12232989 1.20992272 -0.24469483 -5.06599779e-03
478 1 0.24465087 1.20987328 -0.24467719 -5.96099493e-03
479 1 0.36698505 1.20982120 -0.24464609 -6.06828787e-03
480 1 0.48933191 1.20981644 -0.24461446 -6.09081051e-03
481 1 0.61167792 1.20980849 -0.24455689 -6.09597885e-03
482 1 0.73402407 1.20981141 -0.24449209 -6.09677124e-03
483 1 0.85638528 1.20979596 -0.24440692 -6.09261604e-03
484 1 0.97873492 1.20980495 -0.24431093 -6.09210769e-03
485 1 1.10109769 1.20979136 -0.24418535 -6.09159289e-03
486 1 1.22344334 1.20978918 -0.24405386 -6.09258964e-03
487 1 1.34579660 1.20981499 -0.24392043 -6.11404233e-03
488 1 1.46814406 1.20981977 -0.24375632 -6.12924398e-03
489 1 1.59048849 1.20980261 -0.24357664 -6.13810471e-03
490 1 1.71283828 1.20980459 -0.24338445 -6.10740278e-03
491 1 1.83519155 1.20979911 -0.24317458 -6.11299929e-03
492 1 1.95754646 1.20980616 -0.24293910 -6.11651709e-03
493 1 2.07989226 1.20979906 -0.24271168 -6.10892752e-03
494 1 2.20224110 1.20982122 -0.24246101 -6.08383817e-03
495 1 2.32459995 1.20982586 -0.24218681 -6.07811671e-03
496 1 2.44694443 1.20982029 -0.24189786 -6.12167487e-03
497 1 2.56928097 1.20980882 -0.24160932 -6.12891596e-03
498 1 2.69162883 1.20982153 -0.24130639 -6.13439434e-03
499 1 2.81398532 1.20983154 -0.24098207 -6.11877956e-03
500 1 2.93633062 1.20981737 -0.24064039 -6.09486572e-03
501 1 3.05867375 1.20982824 -0.24029013 -6.09206826e-03
502 1 3.18103112 1.20982660 -0.23992656 -6.09206855e-03
503 1 3.30337035 1.20982925 -0.23954764 -6.09206932e-03
504 1 3.42570505 1.20982872 -0.23915200 -6.11378764e-03
505 1 3.54806321 1.20984859 -0.23875073 -6.10132488e-03
506 1 3.67039249 1.20985598 -0.23833394 -6.14015253e-03
507 1 3.79273125 1.20984718 -0.23791647 -6.18862768e-03
508 1 3.91506472 1.20986044 -0.23746755 -6.20494803e-03
509 1 4.03739899 1.20986109 -0.23702562 -6.16689241e-03
510 1 4.15973169 1.20986162 -0.23656176 -6.13536340e-03
511 1 4.28206834 1.20985414 -0.23609681 -6.09206826e-03
512 1 4.40440393 1.20985040 -0.23561823 -6.09528258e-03
513 1 4.52674383 1.20986189 -0.23513321 -6.10197805e-03
514 1 4.64908434 1.20985833 -0.23463232 -6.09705471e-03
515 1 4.77141716 1.20986951 -0.23411878 -6.06436498e-03
516 1 4.89376588 1.20986465 -0.23358996 -6.12133674e-03
517 1 5.01609500 1.20987637 -0.23306010 -6.20974613e-03
518 1 5.13842913 1.20988795 -0.23251633 -6.24802334e-03
519 1 5.26075905 1.20989359 -0.23195860 -6.19819175e-03
520 1 5.38309836 1.20988185 -0.23139510 -6.15088270e-03
521 1 5.50543863 1.20989251 -0.23081927 -6.13301438e-03
522 1 5.62777128 1.20990915 -0.23022928 -6.10131989e-03
523 1 5.75011051 1.20990836 -0.22962933 -6.05757291e-03
524 1 5.87244303 1.20992041 -0.22902045 -6.04491082e-03
525 1 5.99477049 1.20991643 -0.22839338 -6.05437557e-03
526 1 6.11710687 1.20993040 -0.22776488 -6.06489385e-03
527 1 6.23943467 1.20993858 -0.22712335 -6.09206826e-03
528 1 6.36176336 1.20994818 -0.22647065 -6.09206826e-03
529 1 6.48409866 1.20993825 -0.22581564 -6.09979510e-03
530 1 6.60642694 1.20994375 -0.22514539 -6.12512692e-03
531 1 6.72875701 1.20995417 -0.22446883 -6.16578501e-03
532 1 6.85108604 1.20994742 -0.22377278 -6.26929389e-03
533 1 6.97340257 1.20995312 -0.22307419 -6.28695529e-03
534 1 7.09573488 1.20996798 -0.22237480 -6.28583704e-03
535 1 7.21805950 1.20996535 -0.22165876 -6.23881179e-03