ITEM: TIMESTEP
0
ITEM: NUMBER OF ATOMS
10710
ITEM: BOX BOUNDS ff ff ff
-2.0 27.65671972296085
-2.006254050728668 3.2115022089888807
-2.244975230094499 5.11899576382148
ITEM: ATOMS id type x y z q
1 2 0.00000000 0.00000000 0.24527477 3.35542180e-03
2 2 0.00000000 0.00000000 -0.24472523 -3.35542180e-03
3 2 0.00000000 1.21000000 0.24527477 3.41686920e-03
4 2 0.00000000 1.21000000 -0.24472523 -3.41686920e-03
5 1 25.57686244 -0.00625405 3.10778016 3.37776783e-03
6 1 25.65671972 -0.00166566 2.62434841 -3.37776783e-03
7 1 25.57559346 1.20371021 3.11899576 3.41686920e-03
8 1 25.65545300 1.20825184 2.63556463 -3.41686920e-03
9 2 0.00000000 0.00000000 -0.12222523 0.00000000e+00
10 2 0.00000000 0.00000000 0.00027477 0.00000000e+00
11 2 0.00000000 0.00000000 0.12277477 0.00000000e+00
12 2 0.00000000 0.12100000 0.24527477 5.18139194e-03
13 2 0.00000000 0.24200000 0.24527477 5.50362000e-03
14 2 0.00000000 0.36300000 0.24527477 5.01501884e-03
15 2 0.00000000 0.48400000 0.24527477 5.50904170e-03
16 2 0.00000000 0.60500000 0.24527477 6.02408537e-03
17 2 0.00000000 0.72600000 0.24527477 6.86123120e-03
18 2 0.00000000 0.84700000 0.24527477 6.83241897e-03
19 2 0.00000000 0.96800000 0.24527477 5.84994208e-03
20 2 0.00000000 1.08900000 0.24527477 4.96878236e-03
21 2 0.00000000 1.21000000 -0.12222523 0.00000000e+00
22 2 0.00000000 1.21000000 0.00027477 0.00000000e+00
23 2 0.00000000 1.21000000 0.12277477 0.00000000e+00
24 2 0.00000000 0.12100000 -0.24472523 -5.18139194e-03
25 2 0.00000000 0.24200000 -0.24472523 -5.50362000e-03
26 2 0.00000000 0.36300000 -0.24472523 -5.01501884e-03
27 2 0.00000000 0.48400000 -0.24472523 -5.50904170e-03
28 2 0.00000000 0.60500000 -0.24472523 -6.02408537e-03
29 2 0.00000000 0.72600000 -0.24472523 -6.86123120e-03
30 2 0.00000000 0.84700000 -0.24472523 -6.83241897e-03
31 2 0.00000000 0.96800000 -0.24472523 -5.84994208e-03
32 2 0.00000000 1.08900000 -0.24472523 -4.96878236e-03
33 1 25.63675338 -0.00281389 2.74520480 0.00000000e+00
34 1 25.61679026 -0.00396036 2.86606205 0.00000000e+00
35 1 25.59682737 -0.00510658 2.98692076 0.00000000e+00
36 1 25.57673713 0.11474021 3.10890723 5.05002864e-03
37 1 25.57660803 0.23573715 3.11003370 5.64089052e-03
38 1 25.57648051 0.35673297 3.11116028 5.44128437e-03
39 1 25.57635411 0.47773027 3.11228321 6.40224548e-03
40 1 25.57622850 0.59872808 3.11340824 6.88148315e-03
41 1 25.57610115 0.71972497 3.11452859 6.11583422e-03
42 1 25.57597437 0.84072174 3.11564692 5.69198232e-03
43 1 25.57584784 0.96171758 3.11676421 6.01735171e-03
44 1 25.57572151 1.08271501 3.11788091 5.43527194e-03
45 1 25.63548690 1.20711718 2.75642042 0.00000000e+00
46 1 25.61552347 1.20598089 2.87727866 0.00000000e+00
47 1 25.59556044 1.20484503 2.99813672 0.00000000e+00
48 1 25.65659050 0.11932609 2.62547506 -5.05002864e-03
49 1 25.65646470 0.24031797 2.62660199 -5.64089052e-03
50 1 25.65633650 0.36131113 2.62772844 -5.44128437e-03
51 1 25.65621008 0.48230241 2.62885248 -6.40224548e-03
52 1 25.65608413 0.60329340 2.62997501 -6.88148315e-03
53 1 25.65595864 0.72428416 2.63109520 -6.11583422e-03
54 1 25.65583133 0.84527499 2.63221405 -5.69198232e-03
55 1 25.65570498 0.96626732 2.63333117 -6.01735171e-03
56 1 25.65557671 1.08725981 2.63444771 -5.43527194e-03
57 1 0.12256344 0.00060063 -0.24497523 -4.80862070e-03
58 1 0.24520347 0.00107366 -0.24485055 -5.62714142e-03
59 1 0.36785785 0.00115420 -0.24461217 -6.00619986e-03
60 1 0.49064714 0.00114768 -0.24418941 -6.09052560e-03
61 1 0.61334562 0.00117873 -0.24351724 -6.09206826e-03
62 1 0.73608375 0.00140080 -0.24263952 -5.94781856e-03
63 1 0.85878804 0.00163285 -0.24160866 -5.82025544e-03
64 1 0.98147696 0.00148585 -0.23991962 -5.95871849e-03
65 1 1.10440251 0.00152911 -0.23833662 -6.09232315e-03
66 1 1.22718730 0.00143458 -0.23658138 -6.09205550e-03
67 1 1.34988112 0.00150689 -0.23446732 -6.08598370e-03
68 1 1.47263256 0.00169762 -0.23189514 -6.07933546e-03
69 1 1.59531482 0.00172675 -0.22950370 -6.08488133e-03
70 1 1.71800395 0.00170258 -0.22670940 -6.08161608e-03
71 1 1.84064674 0.00170378 -0.22371548 -6.08881076e-03
72 1 1.96353161 0.00164684 -0.22044800 -6.09207793e-03
73 1 2.08628155 0.00169425 -0.21705799 -6.09206431e-03
74 1 2.20902623 0.00186693 -0.21326570 -6.09206920e-03
75 1 2.33173580 0.00184233 -0.20939274 -6.09206749e-03
76 1 2.45434714 0.00177615 -0.20530751 -6.09206826e-03
77 1 2.57691707 0.00177039 -0.20105414 -6.09206901e-03
78 1 2.69959380 0.00157387 -0.19664682 -6.08547783e-03
79 1 2.82219630 0.00164899 -0.19202521 -6.07797420e-03
80 1 2.94479042 0.00188490 -0.18719883 -6.08460882e-03
81 1 3.06738401 0.00175933 -0.18219110 -6.08123045e-03
82 1 3.18992296 0.00181245 -0.17693004 -6.08867780e-03
83 1 3.31242753 0.00185078 -0.17147820 -6.09206866e-03
84 1 3.43502545 0.00187495 -0.16581710 -6.09206839e-03
85 1 3.55750857 0.00175688 -0.16009230 -6.09206833e-03
86 1 3.68006803 0.00165720 -0.15409140 -6.09206826e-03
87 1 3.80267202 0.00182686 -0.14795061 -6.09206824e-03
88 1 3.92515509 0.00187331 -0.14170778 -6.09206825e-03
89 1 4.04766622 0.00172142 -0.13534430 -6.10477040e-03
90 1 4.17016008 0.00186848 -0.12877860 -6.10144793e-03
91 1 4.29253129 0.00186083 -0.12197963 -6.09206826e-03
92 1 4.41505695 0.00181493 -0.11514704 -6.08473760e-03
93 1 4.53740144 0.00180012 -0.10809792 -6.07718969e-03
94 1 4.65981737 0.00187543 -0.10082827 -6.08430762e-03
95 1 4.78219476 0.00194988 -0.09348420 -6.08084602e-03
96 1 4.90462672 0.00190253 -0.08605024 -6.08857506e-03
97 1 5.02707647 0.00205468 -0.07836255 -6.09439460e-03
98 1 5.14949039 0.00193618 -0.07051038 -6.09360296e-03
99 1 5.27184140 0.00197900 -0.06238372 -6.10212083e-03
100 1 5.39424591 0.00191800 -0.05425543 -6.09455787e-03
101 1 5.51652048 0.00207687 -0.04598482 -6.08457013e-03
102 1 5.63880985 0.00204305 -0.03751116 -6.08334006e-03
103 1 5.76127359 0.00200914 -0.02880726 -6.09025173e-03
104 1 5.88349126 0.00201896 -0.02003472 -6.09206826e-03
105 1 6.00576464 0.00202070 -0.01115171 -6.09206826e-03
106 1 6.12802562 0.00215023 -0.00207945 -6.08838437e-03
107 1 6.25021847 0.00215555 0.00711720 -6.09329454e-03
108 1 6.37255855 0.00203227 0.01640846 -6.09400483e-03
109 1 6.49480994 0.00212068 0.02589033 -6.08872179e-03
110 1 6.61711359 0.00220740 0.03561224 -6.08812243e-03
111 1 6.73923613 0.00222598 0.04541887 -6.09206826e-03
112 1 6.86146142 0.00221735 0.05525261 -6.09206826e-03
113 1 6.98357143 0.00220677 0.06523534 -6.09206826e-03
114 1 7.10565925 0.00227109 0.07550208 -6.06302327e-03
115 1 7.22782035 0.00213693 0.08582573 -6.06302327e-03
116 1 7.35000835 0.00215845 0.09632773 -5.90236529e-03
117 1 7.47210629 0.00218782 0.10697057 -5.81608564e-03
118 1 7.59417619 0.00220345 0.11767669 -6.10035823e-03
119 1 7.71629058 0.00219666 0.12852893 -5.08741334e-03
120 1 7.83831827 0.00218782 0.13950050 -6.87719096e-03
121 1 7.96030054 0.00224302 0.15058440 -5.18694999e-03
122 1 8.08243686 0.00214321 0.16171398 -5.00655937e-03
123 1 8.20441116 0.00218418 0.17306061 -7.17602109e-03
124 1 8.32642245 0.00228364 0.18448970 -5.64123658e-03
125 1 8.44852502 0.00231394 0.19603401 -5.91249038e-03
126 1 8.57044922 0.00226107 0.20768781 -5.77202514e-03
127 1 8.69238649 0.00227673 0.21944455 -5.95689302e-03
128 1 8.81441138 0.00233556 0.23130457 -6.09206826e-03
129 1 8.93637963 0.00222974 0.24333315 -6.09206826e-03
130 1 9.05829532 0.00223668 0.25543351 -6.09206826e-03
131 1 9.18019490 0.00227750 0.26761744 -6.00199927e-03
132 1 9.30216434 0.00243431 0.27991080 -6.06987486e-03
133 1 9.42410046 0.00244858 0.29235430 -5.02835518e-03
134 1 9.54597773 0.00243083 0.30490118 -6.79157831e-03
135 1 9.66778679 0.00253342 0.31764158 -4.92113473e-03
136 1 9.78969949 0.00244653 0.33040844 -5.56259368e-03
137 1 9.91160586 0.00237508 0.34334759 -5.94323360e-03
138 1 10.03348513 0.00247185 0.35646290 -5.00637084e-03
139 1 10.15522736 0.00241152 0.36955435 -6.75640181e-03
140 1 10.27699757 0.00231991 0.38279122 -4.91035923e-03
141 1 10.39874218 0.00231010 0.39616352 -5.75765677e-03
142 1 10.52052472 0.00232262 0.40954878 -6.37465021e-03
143 1 10.64228928 0.00240134 0.42302214 -6.33172667e-03
144 1 10.76400555 0.00243025 0.43661077 -5.77695765e-03
145 1 10.88578628 0.00252232 0.45028167 -5.75602868e-03
146 1 11.00750384 0.00248121 0.46402245 -5.94989338e-03
147 1 11.12915602 0.00244222 0.47798968 -6.09206826e-03
148 1 11.25087068 0.00254325 0.49201470 -6.09206826e-03
149 1 11.37256556 0.00246908 0.50615349 -6.49862787e-03
150 1 11.49426726 0.00251730 0.52042463 -6.47806478e-03
151 1 11.61593319 0.00242808 0.53470761 -5.98398651e-03
152 1 11.73762550 0.00249086 0.54915309 -5.97118729e-03
153 1 11.85923717 0.00241772 0.56363558 -6.32827249e-03
154 1 11.98085666 0.00242400 0.57817498 -6.38296841e-03
155 1 12.10248522 0.00253850 0.59280884 -6.09206826e-03
156 1 12.22407851 0.00243779 0.60761604 -5.92176613e-03
157 1 12.34563229 0.00246407 0.62244695 -5.84196899e-03
158 1 12.46712106 0.00244072 0.63736645 -5.89327746e-03
159 1 12.58871961 0.00246932 0.65244736 -4.96011300e-03
160 1 12.71023859 0.00247600 0.66753694 -6.65158567e-03
161 1 12.83174681 0.00246850 0.68276559 -4.90989307e-03
162 1 12.95332883 0.00245320 0.69800746 -5.52395043e-03
163 1 13.07483847 0.00251684 0.71338599 -5.87068470e-03
164 1 13.19632412 0.00250632 0.72881729 -4.88602194e-03
165 1 13.31777792 0.00252691 0.74434732 -6.40279006e-03
166 1 13.43923708 0.00250350 0.75992848 -5.12407601e-03
167 1 13.56068075 0.00246890 0.77562448 -4.88216806e-03
168 1 13.68211610 0.00245046 0.79136237 -6.38017819e-03
169 1 13.80353141 0.00252525 0.80719866 -5.11373203e-03
170 1 13.92493810 0.00247997 0.82312125 -4.85398664e-03
171 1 14.04636094 0.00246045 0.83911109 -6.35577596e-03
172 1 14.16770898 0.00251282 0.85521274 -5.10698016e-03
173 1 14.28911735 0.00243089 0.87132807 -4.85870271e-03
174 1 14.41046817 0.00243201 0.88761260 -6.37702085e-03
175 1 14.53182566 0.00235695 0.90387007 -5.10092274e-03
176 1 14.65316211 0.00238408 0.92022597 -4.84968636e-03
177 1 14.77446693 0.00240311 0.93667166 -6.37599125e-03
178 1 14.89581417 0.00239461 0.95317076 -4.87710407e-03
179 1 15.01715341 0.00239488 0.96976839 -5.56677439e-03
180 1 15.13847460 0.00231751 0.98639946 -5.93477518e-03
181 1 15.25977293 0.00236129 1.00313360 -6.09206826e-03
182 1 15.38106526 0.00231740 1.01991525 -6.09206826e-03
183 1 15.50232859 0.00233621 1.03676751 -5.98211588e-03
184 1 15.62356292 0.00230844 1.05369868 -5.88223740e-03
185 1 15.74481728 0.00231263 1.07073276 -5.93479953e-03
186 1 15.86606988 0.00219201 1.08782818 -4.77734034e-03
187 1 15.98726126 0.00218946 1.10496576 -6.31776323e-03
188 1 16.10847122 0.00221256 1.12214989 -4.85845554e-03
189 1 16.22970178 0.00221301 1.13943930 -5.48045656e-03
190 1 16.35089241 0.00216791 1.15677619 -5.74774533e-03
191 1 16.47203333 0.00211238 1.17419291 -5.91938606e-03
192 1 16.59322708 0.00206108 1.19171483 -4.72601755e-03
193 1 16.71439988 0.00206787 1.20926366 -6.44309587e-03
194 1 16.83550587 0.00203992 1.22684871 -5.21392668e-03
195 1 16.95663753 0.00200390 1.24445609 -4.32492230e-03
196 1 17.07777694 0.00197521 1.26215739 -6.11554878e-03
197 1 17.19887144 0.00194457 1.27994541 -5.20526136e-03
198 1 17.32002800 0.00192765 1.29778010 -4.31230685e-03
199 1 17.44109180 0.00190011 1.31563032 -6.11716232e-03
200 1 17.56214753 0.00192354 1.33360155 -5.69773107e-03
201 1 17.68323563 0.00183340 1.35159448 -5.99314584e-03
202 1 17.80432248 0.00183395 1.36966040 -4.76350900e-03
203 1 17.92536121 0.00177145 1.38782316 -5.21120302e-03
204 1 18.04642133 0.00174447 1.40597375 -6.01204532e-03
205 1 18.16742707 0.00169624 1.42418496 -5.73233737e-03
206 1 18.28847157 0.00162020 1.44246664 -5.81943467e-03
207 1 18.40945360 0.00160823 1.46080066 -6.32655047e-03
208 1 18.53050267 0.00155500 1.47919468 -5.03614005e-03
209 1 18.65148714 0.00151361 1.49758370 -4.70280803e-03
210 1 18.77244584 0.00147259 1.51608592 -8.65683464e-03
211 1 18.89343603 0.00146395 1.53459978 -5.94692004e-03
212 1 19.01437057 0.00141367 1.55321142 -5.65885778e-03
213 1 19.13536541 0.00136733 1.57180939 -5.99277035e-03
214 1 19.25630051 0.00129011 1.59050148 -6.04066598e-03
215 1 19.37721552 0.00122447 1.60920984 -6.09206826e-03
216 1 19.49818058 0.00124768 1.62799720 -6.09206826e-03
217 1 19.61907298 0.00120534 1.64679409 -6.09206826e-03
218 1 19.74000168 0.00111653 1.66562630 -5.94140402e-03
219 1 19.86089940 0.00105193 1.68450812 -6.09135703e-03
220 1 19.98178993 0.00101968 1.70343355 -6.09135703e-03
221 1 20.10270141 0.00097469 1.72239718 -6.09206826e-03
222 1 20.22358052 0.00092217 1.74139864 -6.22362401e-03
223 1 20.34442639 0.00090951 1.76044502 -6.30618064e-03
224 1 20.46530228 0.00083607 1.77952073 -6.16079228e-03
225 1 20.58616065 0.00076664 1.79862170 -6.90076158e-03
226 1 20.70699811 0.00072273 1.81776389 -7.19612184e-03
227 1 20.82785345 0.00067578 1.83693716 -6.17999120e-03
228 1 20.94869230 0.00064732 1.85615421 -5.85545161e-03
229 1 21.06951707 0.00058984 1.87539905 -6.04373412e-03
230 1 21.19035221 0.00056165 1.89470022 -6.05837687e-03
231 1 21.31117913 0.00048818 1.91402305 -6.22625934e-03
232 1 21.43197369 0.00041966 1.93337209 -6.96326852e-03
233 1 21.55279006 0.00036734 1.95274203 -6.60839364e-03
234 1 21.67356874 0.00032693 1.97217187 -6.08325267e-03
235 1 21.79434455 0.00026801 1.99164002 -5.98999100e-03
236 1 21.91513095 0.00022407 2.01111628 -6.02220795e-03
237 1 22.03590545 0.00014508 2.03062890 -5.94934321e-03
238 1 22.15667089 0.00008239 2.05016462 -6.23085673e-03
239 1 22.27741492 0.00002999 2.06971666 -5.91383044e-03
240 1 22.39818587 -0.00001404 2.08929922 -5.82022831e-03
241 1 22.51892763 -0.00008408 2.10889697 -6.06616825e-03
242 1 22.63968067 -0.00016551 2.12854192 -6.09206826e-03
243 1 22.76040240 -0.00021552 2.14819673 -6.22108889e-03
244 1 22.88113319 -0.00024328 2.16786160 -6.93510095e-03
245 1 23.00185020 -0.00030017 2.18756509 -6.55067958e-03
246 1 23.12258552 -0.00037105 2.20726975 -5.44215936e-03
247 1 23.24328551 -0.00042149 2.22699980 -5.52453627e-03
248 1 23.36400475 -0.00046461 2.24675321 -6.11677386e-03
249 1 23.48469602 -0.00053017 2.26651665 -5.40422112e-03
250 1 23.60540290 -0.00060636 2.28630618 -5.51625079e-03
251 1 23.72610349 -0.00067102 2.30611532 -6.10817079e-03
252 1 23.84679316 -0.00073563 2.32593712 -5.39058303e-03
253 1 23.96747773 -0.00079295 2.34577294 -5.51111698e-03
254 1 24.08816732 -0.00086516 2.36561645 -6.09959331e-03
255 1 24.20884266 -0.00092975 2.38546972 -5.37708140e-03
256 1 24.32951844 -0.00097223 2.40534126 -5.50601994e-03
257 1 24.45018919 -0.00103894 2.42521169 -6.09132348e-03
258 1 24.57085601 -0.00110831 2.44509895 -5.36406280e-03
259 1 24.69151932 -0.00116624 2.46499930 -5.50114066e-03
260 1 24.81217354 -0.00123046 2.48490302 -6.07613573e-03
261 1 24.93283125 -0.00129172 2.50481295 -5.86576563e-03
262 1 25.05348476 -0.00135879 2.52472699 -5.87763703e-03
263 1 25.17413995 -0.00142014 2.54464503 -5.79509293e-03
264 1 25.29478706 -0.00148199 2.56456788 -6.45795830e-03
265 1 25.41543497 -0.00154590 2.58449333 -6.36067877e-03
266 1 25.53607842 -0.00160761 2.60441926 -5.01672083e-03
267 1 0.12208325 -0.00042450 0.24497197 4.80862070e-03
268 1 0.24410850 -0.00081430 0.24496834 5.62714142e-03
269 1 0.36611539 -0.00082480 0.24512197 6.00619986e-03
270 1 0.48808013 -0.00088590 0.24575536 6.09052560e-03
271 1 0.60982813 -0.00116272 0.24644354 6.09206826e-03
272 1 0.73179216 -0.00130576 0.24728079 5.94781856e-03
273 1 0.85372556 -0.00136141 0.24851959 5.82025544e-03
274 1 0.97546890 -0.00114370 0.24981599 5.95871849e-03
275 1 1.09724256 -0.00114099 0.25149023 6.09232315e-03
276 1 1.21912961 -0.00120620 0.25349360 6.09205550e-03
277 1 1.34097494 -0.00110116 0.25546567 6.08598370e-03
278 1 1.46290111 -0.00122025 0.25766671 6.07933546e-03
279 1 1.58484527 -0.00129235 0.26026004 6.08488133e-03
280 1 1.70653908 -0.00129201 0.26297292 6.08161608e-03
281 1 1.82842229 -0.00141104 0.26602046 6.08881076e-03
282 1 1.95037658 -0.00149696 0.26925019 6.09207793e-03
283 1 2.07195035 -0.00141798 0.27257881 6.09206431e-03
284 1 2.19390721 -0.00123092 0.27617717 6.09206920e-03
285 1 2.31577319 -0.00130319 0.28012561 6.09206749e-03
286 1 2.43768469 -0.00129058 0.28425358 6.09206826e-03
287 1 2.55956906 -0.00124741 0.28841135 6.09206901e-03
288 1 2.68151466 -0.00134568 0.29298731 6.08547783e-03
289 1 2.80328794 -0.00131541 0.29752576 6.07797420e-03
290 1 2.92511423 -0.00126711 0.30237401 6.08460882e-03
291 1 3.04700453 -0.00115139 0.30734471 6.08123045e-03
292 1 3.16890828 -0.00112782 0.31263501 6.08867780e-03
293 1 3.29063264 -0.00116066 0.31795202 6.09206866e-03
294 1 3.41246008 -0.00129431 0.32347282 6.09206839e-03
295 1 3.53428572 -0.00116959 0.32924969 6.09206833e-03
296 1 3.65613012 -0.00120246 0.33518930 6.09206826e-03
297 1 3.77804709 -0.00124411 0.34128896 6.09206824e-03
298 1 3.89979295 -0.00131216 0.34749934 6.09206825e-03
299 1 4.02160780 -0.00129429 0.35394074 6.10477040e-03
300 1 4.14332186 -0.00120716 0.36047037 6.10144793e-03
301 1 4.26522754 -0.00119082 0.36718019 6.09206826e-03
302 1 4.38708924 -0.00118044 0.37404415 6.08473760e-03
303 1 4.50892890 -0.00130518 0.38091820 6.07718969e-03
304 1 4.63078641 -0.00145740 0.38805983 6.08430762e-03
305 1 4.75254501 -0.00120865 0.39543782 6.08084602e-03
306 1 4.87429490 -0.00125956 0.40292181 6.08857506e-03
307 1 4.99604406 -0.00135480 0.41062209 6.09439460e-03
308 1 5.11781332 -0.00141974 0.41846125 6.09360296e-03
309 1 5.23952401 -0.00123269 0.42636247 6.10212083e-03
310 1 5.36117504 -0.00130470 0.43449198 6.09455787e-03
311 1 5.48294227 -0.00131822 0.44277302 6.08457013e-03
312 1 5.60470402 -0.00127635 0.45119558 6.08334006e-03
313 1 5.72637812 -0.00128111 0.45973389 6.09025173e-03
314 1 5.84810403 -0.00136624 0.46844649 6.09206826e-03
315 1 5.96991644 -0.00141382 0.47734002 6.09206826e-03
316 1 6.09158501 -0.00138586 0.48632913 6.08838437e-03
317 1 6.21322768 -0.00129416 0.49558417 6.09329454e-03
318 1 6.33480768 -0.00151734 0.50493996 6.09400483e-03
319 1 6.45652707 -0.00151803 0.51436095 6.08872179e-03
320 1 6.57824777 -0.00150127 0.52390246 6.08812243e-03
321 1 6.69983702 -0.00143072 0.53352606 6.09206826e-03
322 1 6.82149080 -0.00146226 0.54344758 6.09206826e-03
323 1 6.94315776 -0.00137080 0.55353725 6.09206826e-03
324 1 7.06472162 -0.00140983 0.56369828 6.06302327e-03
325 1 7.18630348 -0.00135995 0.57400234 6.06302327e-03
326 1 7.30787686 -0.00136166 0.58441159 5.90236529e-03
327 1 7.42952123 -0.00132199 0.59499995 5.81608564e-03
328 1 7.55116217 -0.00123518 0.60569821 6.10035823e-03
329 1 7.67269451 -0.00133680 0.61653359 5.08741347e-03
330 1 7.79439272 -0.00136900 0.62736418 6.88423117e-03
331 1 7.91593430 -0.00131114 0.63849617 4.95164977e-03
332 1 8.03738690 -0.00130504 0.64955766 5.63292633e-03
333 1 8.15895404 -0.00137217 0.66086080 5.95654755e-03
334 1 8.28052390 -0.00138141 0.67223651 6.00432988e-03
335 1 8.40206680 -0.00133591 0.68372106 6.08757506e-03
336 1 8.52359318 -0.00133248 0.69535502 5.05700823e-03
337 1 8.64514165 -0.00142618 0.70704191 6.83715280e-03
338 1 8.76663838 -0.00137006 0.71882324 4.93632937e-03
339 1 8.88819317 -0.00145382 0.73082691 5.62467055e-03
340 1 9.00964533 -0.00153738 0.74285834 5.95386311e-03
341 1 9.13105677 -0.00152491 0.75506042 6.00199927e-03
342 1 9.25257706 -0.00154011 0.76736669 6.06987486e-03
343 1 9.37392465 -0.00157566 0.77976699 5.01509653e-03
344 1 9.49544240 -0.00153913 0.79223036 6.78511241e-03
345 1 9.61686561 -0.00158943 0.80484855 4.92113473e-03
346 1 9.73830069 -0.00163168 0.81766389 5.61645056e-03
347 1 9.85966428 -0.00155277 0.83056201 5.95118153e-03
348 1 9.98106808 -0.00159853 0.84350779 6.09206826e-03
349 1 10.10240490 -0.00157559 0.85665896 6.09206826e-03
350 1 10.22379111 -0.00160514 0.86980650 6.09206826e-03
351 1 10.34522893 -0.00158014 0.88310431 6.50085567e-03
352 1 10.46661536 -0.00159413 0.89645455 6.38496347e-03
353 1 10.58804046 -0.00161763 0.90990033 5.77251663e-03
354 1 10.70934412 -0.00164839 0.92345754 5.73476969e-03
355 1 10.83074250 -0.00168148 0.93710690 5.94888879e-03
356 1 10.95208128 -0.00180078 0.95084961 6.09206826e-03
357 1 11.07337426 -0.00172658 0.96469721 6.09206826e-03
358 1 11.19470285 -0.00176900 0.97868606 6.09206826e-03
359 1 11.31597887 -0.00184017 0.99274887 6.09206826e-03
360 1 11.43718076 -0.00179595 1.00698262 4.98457375e-03
361 1 11.55852066 -0.00176997 1.02126008 6.69756871e-03
362 1 11.67983660 -0.00174208 1.03562958 5.15375987e-03
363 1 11.80104135 -0.00176957 1.05005231 4.95985007e-03
364 1 11.92228097 -0.00179435 1.06455058 6.48212442e-03
365 1 12.04357613 -0.00184665 1.07922205 5.14927068e-03
366 1 12.16479866 -0.00180344 1.09391743 4.95341033e-03
367 1 12.28601229 -0.00193406 1.10876697 6.46347279e-03
368 1 12.40718923 -0.00182857 1.12362052 5.14043101e-03
369 1 12.52835083 -0.00192154 1.13863371 4.91020010e-03
370 1 12.64962112 -0.00188986 1.15368016 6.45556760e-03
371 1 12.77084387 -0.00190363 1.16884429 4.90989307e-03
372 1 12.89203059 -0.00195642 1.18409776 5.52395043e-03
373 1 13.01319573 -0.00192241 1.19941461 5.87068470e-03
374 1 13.13431048 -0.00192766 1.21484303 4.87920209e-03
375 1 13.25547628 -0.00197750 1.23031328 6.41661913e-03
376 1 13.37660984 -0.00198405 1.24588043 4.89988333e-03
377 1 13.49776508 -0.00196195 1.26148830 5.51681014e-03
378 1 13.61890569 -0.00196795 1.27721188 5.85936171e-03
379 1 13.73996701 -0.00201659 1.29304523 4.85938456e-03
380 1 13.86105444 -0.00201012 1.30888029 6.38254444e-03
381 1 13.98219577 -0.00208619 1.32480258 4.88995824e-03
382 1 14.10329405 -0.00209900 1.34086485 5.57476230e-03
383 1 14.22435633 -0.00202121 1.35698618 5.93743790e-03
384 1 14.34539632 -0.00215810 1.37315516 5.98766457e-03
385 1 14.46645731 -0.00216249 1.38937377 5.96043235e-03
386 1 14.58750131 -0.00213184 1.40574250 4.81637844e-03
387 1 14.70858563 -0.00218173 1.42219265 6.34214196e-03
388 1 14.82964232 -0.00217781 1.43861967 4.87620659e-03
389 1 14.95066865 -0.00219115 1.45514251 5.56677439e-03
390 1 15.07169394 -0.00226709 1.47172691 5.93477518e-03
391 1 15.19266908 -0.00229338 1.48841584 5.98532808e-03
392 1 15.31367409 -0.00227938 1.50518163 5.94249673e-03
393 1 15.43464075 -0.00235204 1.52199779 4.79106117e-03
394 1 15.55562172 -0.00241264 1.53891958 6.34873408e-03
395 1 15.67655256 -0.00232943 1.55589723 5.10720957e-03
396 1 15.79749538 -0.00243390 1.57296140 4.79385489e-03
397 1 15.91846323 -0.00250201 1.59004493 6.33054845e-03
398 1 16.03944950 -0.00256430 1.60724994 5.10009402e-03
399 1 16.16032679 -0.00258187 1.62446116 4.78369059e-03
400 1 16.28131254 -0.00255667 1.64175780 6.31203828e-03
401 1 16.40224150 -0.00260121 1.65911656 5.09300092e-03
402 1 16.52310191 -0.00261024 1.67654435 4.74903927e-03
403 1 16.64400225 -0.00264732 1.69408994 6.32830758e-03
404 1 16.76495628 -0.00266683 1.71162133 5.08343922e-03
405 1 16.88586014 -0.00271123 1.72928748 4.32591159e-03
406 1 17.00672666 -0.00280064 1.74694618 6.00104739e-03
407 1 17.12762498 -0.00276686 1.76469808 5.21119202e-03
408 1 17.24842808 -0.00286209 1.78246881 6.09206826e-03
409 1 17.36932310 -0.00291580 1.80031620 6.05153388e-03
410 1 17.49014497 -0.00291844 1.81821626 5.91774538e-03
411 1 17.61102045 -0.00297758 1.83617028 6.22305381e-03
412 1 17.73187190 -0.00298444 1.85423101 5.03791106e-03
413 1 17.85269202 -0.00304388 1.87233119 4.72607940e-03
414 1 17.97354642 -0.00305515 1.89046466 8.71836332e-03
415 1 18.09437139 -0.00313500 1.90866081 5.95355142e-03
416 1 18.21518750 -0.00314583 1.92689320 5.36960420e-03
417 1 18.33599784 -0.00326039 1.94518750 6.03255871e-03
418 1 18.45678995 -0.00328382 1.96351626 5.00245570e-03
419 1 18.57754266 -0.00334365 1.98190371 4.70280803e-03
420 1 18.69833594 -0.00333292 2.00037469 8.65685956e-03
421 1 18.81911279 -0.00338585 2.01889246 5.94692135e-03
422 1 18.93990995 -0.00345350 2.03741970 5.65886656e-03
423 1 19.06069095 -0.00348541 2.05603641 5.98663784e-03
424 1 19.18141305 -0.00352682 2.07469950 6.03862808e-03
425 1 19.30216794 -0.00359087 2.09338258 6.08821513e-03
426 1 19.42294897 -0.00362730 2.11211195 6.17296108e-03
427 1 19.54371891 -0.00367821 2.13090689 6.04911048e-03
428 1 19.66445317 -0.00368113 2.14971255 6.99423467e-03
429 1 19.78519700 -0.00372355 2.16857712 6.49916941e-03
430 1 19.90594161 -0.00378653 2.18747496 6.05139015e-03
431 1 20.02664480 -0.00381181 2.20644945 6.07023001e-03
432 1 20.14737482 -0.00388471 2.22540372 6.06423220e-03
433 1 20.26809884 -0.00393935 2.24441994 6.03339671e-03
434 1 20.38883570 -0.00401079 2.26345193 6.06123277e-03
435 1 20.50952789 -0.00402809 2.28254573 6.05523286e-03
436 1 20.63023363 -0.00410405 2.30167269 6.01539697e-03
437 1 20.75095529 -0.00412221 2.32083736 6.05223237e-03
438 1 20.87166487 -0.00419710 2.34000558 6.04623034e-03
439 1 20.99232159 -0.00424539 2.35923128 5.99739088e-03
440 1 21.11303256 -0.00429609 2.37850317 6.03386113e-03
441 1 21.23373328 -0.00434611 2.39781890 6.06015229e-03
442 1 21.35439294 -0.00441207 2.41714604 6.93292310e-03
443 1 21.47504419 -0.00444168 2.43652307 6.60839364e-03
444 1 21.59571168 -0.00450685 2.45592636 6.08325267e-03
445 1 21.71637578 -0.00454062 2.47534977 5.98999100e-03
446 1 21.83704976 -0.00458866 2.49481479 6.02220795e-03
447 1 21.95771034 -0.00463688 2.51430188 5.94934321e-03
448 1 22.07836737 -0.00471120 2.53381756 6.00521256e-03
449 1 22.19903585 -0.00475720 2.55337942 5.96042100e-03
450 1 22.31967096 -0.00479898 2.57294040 6.01327673e-03
451 1 22.44033057 -0.00483501 2.59253761 6.06616825e-03
452 1 22.56097858 -0.00489880 2.61215034 6.09206826e-03
453 1 22.68162903 -0.00495662 2.63179060 6.22108889e-03
454 1 22.80228337 -0.00501197 2.65144605 6.93510095e-03
455 1 22.92292527 -0.00506286 2.67112697 6.55067958e-03
456 1 23.04354901 -0.00511837 2.69083082 5.44215936e-03
457 1 23.16419417 -0.00518189 2.71054171 5.52453627e-03
458 1 23.28483755 -0.00522319 2.73028291 6.09206826e-03
459 1 23.40547052 -0.00527017 2.75004681 5.52769247e-03
460 1 23.52610715 -0.00533125 2.76981811 5.54504444e-03
461 1 23.64674522 -0.00538019 2.78962366 6.09206826e-03
462 1 23.76736442 -0.00544158 2.80943200 5.52433613e-03
463 1 23.88800515 -0.00549429 2.82925520 5.54169116e-03
464 1 24.00863307 -0.00553409 2.84909018 6.09959331e-03
465 1 24.12926270 -0.00559748 2.86893980 5.37708140e-03
466 1 24.24989943 -0.00565075 2.88880162 5.50601994e-03
467 1 24.37053268 -0.00570539 2.90867666 6.09132348e-03
468 1 24.49115728 -0.00575891 2.92856109 5.36406280e-03
469 1 24.61179089 -0.00581326 2.94845301 5.50114066e-03
470 1 24.73241843 -0.00586428 2.96834768 6.07613573e-03
471 1 24.85305656 -0.00592277 2.98825529 5.86576563e-03
472 1 24.97368811 -0.00597490 3.00816800 5.87763704e-03
473 1 25.09431987 -0.00602799 3.02808224 5.79509293e-03
474 1 25.21495504 -0.00608568 3.04800499 6.45795830e-03
475 1 25.33558909 -0.00614036 3.06792739 6.36067877e-03
476 1 25.45622539 -0.00619575 3.08785299 5.01672083e-03
477 1 0.12251568 1.20949999 -0.24468766 -5.06599779e-03
478 1 0.24506031 1.20929334 -0.24471581 -5.96099493e-03
479 1 0.36779410 1.20892118 -0.24434356 -6.06828787e-03
480 1 0.49055217 1.20901514 -0.24384661 -6.09081051e-03
481 1 0.61326614 1.20899350 -0.24300627 -6.09597885e-03
482 1 0.73597470 1.20904209 -0.24202968 -6.09677124e-03
483 1 0.85889567 1.20883514 -0.24071911 -6.09261604e-03
484 1 0.98166387 1.20897082 -0.23925423 -6.09210769e-03
485 1 1.10455285 1.20881501 -0.23731313 -6.09159289e-03
486 1 1.22722695 1.20883023 -0.23531248 -6.09258964e-03
487 1 1.34998870 1.20918441 -0.23326851 -6.11404233e-03
488 1 1.47267389 1.20922654 -0.23078166 -6.12924398e-03
489 1 1.59529873 1.20898705 -0.22815105 -6.13810471e-03
490 1 1.71798612 1.20901885 -0.22539534 -6.10740278e-03
491 1 1.84075090 1.20896260 -0.22231223 -6.11299929e-03
492 1 1.96350961 1.20901826 -0.21879502 -6.11651709e-03
493 1 2.08617083 1.20891672 -0.21550056 -6.10892752e-03
494 1 2.20887726 1.20922592 -0.21178006 -6.08383817e-03
495 1 2.33162591 1.20934662 -0.20779511 -6.07811671e-03
496 1 2.45422327 1.20925480 -0.20352933 -6.12167487e-03
497 1 2.57677789 1.20911384 -0.19923978 -6.12891596e-03
498 1 2.69942943 1.20928575 -0.19479522 -6.13439434e-03
499 1 2.82214874 1.20941558 -0.18997148 -6.11877956e-03
500 1 2.94476936 1.20925701 -0.18501845 -6.09486572e-03
501 1 3.06735141 1.20940870 -0.17990295 -6.09206826e-03
502 1 3.19007221 1.20939304 -0.17457700 -6.09206855e-03
503 1 3.31261325 1.20937957 -0.16901567 -6.09206932e-03
504 1 3.43502275 1.20942995 -0.16330325 -6.11378764e-03
505 1 3.55779079 1.20968167 -0.15746517 -6.10132488e-03
506 1 3.68018292 1.20974265 -0.15138335 -6.14015253e-03
507 1 3.80265171 1.20964658 -0.14525025 -6.18862768e-03
508 1 3.92506010 1.20979482 -0.13872711 -6.20494803e-03
509 1 4.04750595 1.20979059 -0.13230771 -6.16689241e-03
510 1 4.16989053 1.20979122 -0.12556426 -6.13536340e-03
511 1 4.29233518 1.20976125 -0.11878696 -6.09206826e-03
512 1 4.41472628 1.20974563 -0.11183275 -6.09528258e-03
513 1 4.53719570 1.20988024 -0.10478607 -6.10197805e-03
514 1 4.65969802 1.20981687 -0.09754561 -6.09705471e-03
515 1 4.78205886 1.20989953 -0.09008938 -6.06436498e-03
516 1 4.90455321 1.20979001 -0.08238956 -6.12133674e-03
517 1 5.02684942 1.20989437 -0.07466797 -6.20974613e-03
518 1 5.14921574 1.20999693 -0.06675116 -6.24802334e-03
519 1 5.27150487 1.21004471 -0.05864270 -6.19819175e-03
520 1 5.39391551 1.20987548 -0.05039857 -6.15088270e-03
521 1 5.51632394 1.20993097 -0.04200113 -6.13301438e-03
522 1 5.63860446 1.21010464 -0.03344488 -6.10131989e-03
523 1 5.76099339 1.21008701 -0.02473436 -6.05757291e-03
524 1 5.88327344 1.21019831 -0.01588061 -6.04491082e-03
525 1 6.00547114 1.21015692 -0.00676635 -6.05437557e-03
526 1 6.12779943 1.21030346 0.00235030 -6.06489385e-03
527 1 6.24999162 1.21037625 0.01163070 -6.09206826e-03
528 1 6.37221565 1.21045522 0.02109670 -6.09206826e-03
529 1 6.49445970 1.21032172 0.03070428 -6.09979510e-03
530 1 6.61662167 1.21036259 0.04045772 -6.12512692e-03
531 1 6.73882929 1.21048287 0.05030404 -6.16578501e-03
532 1 6.86102525 1.21038994 0.06041691 -6.26929389e-03
533 1 6.98308256 1.21042503 0.07051635 -6.28695529e-03
534 1 7.10531007 1.21058896 0.08066011 -6.28583704e-03
535 1 7.22742733 1.21052456 0.09104573 -6.23881179e-03
536 1 7.34962535 1.21055929 0.10159866 -6.30184580e-03