ITEM: TIMESTEP
0
ITEM: NUMBER OF ATOMS
10710
ITEM: BOX BOUNDS ff ff ff
-2.0 26.225243275813224
-2.0051369728833306 3.2426550826339824
-2.245619529461672 10.84116775733665
ITEM: ATOMS id type x y z q
1 2 0.00000000 0.00000000 0.24527477 3.35542180e-03
2 2 0.00000000 0.00000000 -0.24472523 -3.35542180e-03
3 2 0.00000000 1.21000000 0.24527477 3.41686920e-03
4 2 0.00000000 1.21000000 -0.24472523 -3.41686920e-03
5 1 24.00780747 0.02013507 8.81255866 3.37776783e-03
6 1 24.22524328 0.03317989 8.37355798 -3.37776783e-03
7 1 23.99312131 1.22964046 8.84116776 3.41686920e-03
8 1 24.21054916 1.24265508 8.40216759 -3.41686920e-03
9 2 0.00000000 0.00000000 -0.12222523 0.00000000e+00
10 2 0.00000000 0.00000000 0.00027477 0.00000000e+00
11 2 0.00000000 0.00000000 0.12277477 0.00000000e+00
12 2 0.00000000 0.12100000 0.24527477 5.18139194e-03
13 2 0.00000000 0.24200000 0.24527477 5.50362000e-03
14 2 0.00000000 0.36300000 0.24527477 5.01501884e-03
15 2 0.00000000 0.48400000 0.24527477 5.50904170e-03
16 2 0.00000000 0.60500000 0.24527477 6.02408537e-03
17 2 0.00000000 0.72600000 0.24527477 6.86123120e-03
18 2 0.00000000 0.84700000 0.24527477 6.83241897e-03
19 2 0.00000000 0.96800000 0.24527477 5.84994208e-03
20 2 0.00000000 1.08900000 0.24527477 4.96878236e-03
21 2 0.00000000 1.21000000 -0.12222523 0.00000000e+00
22 2 0.00000000 1.21000000 0.00027477 0.00000000e+00
23 2 0.00000000 1.21000000 0.12277477 0.00000000e+00
24 2 0.00000000 0.12100000 -0.24472523 -5.18139194e-03
25 2 0.00000000 0.24200000 -0.24472523 -5.50362000e-03
26 2 0.00000000 0.36300000 -0.24472523 -5.01501884e-03
27 2 0.00000000 0.48400000 -0.24472523 -5.50904170e-03
28 2 0.00000000 0.60500000 -0.24472523 -6.02408537e-03
29 2 0.00000000 0.72600000 -0.24472523 -6.86123120e-03
30 2 0.00000000 0.84700000 -0.24472523 -6.83241897e-03
31 2 0.00000000 0.96800000 -0.24472523 -5.84994208e-03
32 2 0.00000000 1.08900000 -0.24472523 -4.96878236e-03
33 1 24.17087961 0.02991558 8.48330638 0.00000000e+00
34 1 24.11652256 0.02665488 8.59305444 0.00000000e+00
35 1 24.06216588 0.02339599 8.70280527 0.00000000e+00
36 1 24.00634005 0.14108304 8.81542469 5.05002864e-03
37 1 24.00486728 0.26203464 8.81828844 5.64089052e-03
38 1 24.00339704 0.38298468 8.82115303 5.44128437e-03
39 1 24.00193456 0.50393680 8.82401441 6.40224548e-03
40 1 24.00046258 0.62488860 8.82687948 6.88148315e-03
41 1 23.99899472 0.74583913 8.82973632 6.11583422e-03
42 1 23.99752594 0.86679096 8.83259445 5.69198232e-03
43 1 23.99605466 0.98774230 8.83545536 6.01735171e-03
44 1 23.99458734 1.10869340 8.83831267 5.43527194e-03
45 1 24.15618986 1.23940303 8.51191469 0.00000000e+00
46 1 24.10183384 1.23614830 8.62166383 0.00000000e+00
47 1 24.04747955 1.23289372 8.73141437 0.00000000e+00
48 1 24.22376837 0.15412495 8.37642339 -5.05002864e-03
49 1 24.22229984 0.27507286 8.37929229 -5.64089052e-03
50 1 24.22082667 0.39602125 8.38215183 -5.44128437e-03
51 1 24.21935891 0.51696819 8.38501171 -6.40224548e-03
52 1 24.21789188 0.63791537 8.38787369 -6.88148315e-03
53 1 24.21642509 0.75886371 8.39073924 -6.11583422e-03
54 1 24.21495419 0.87981230 8.39359330 -5.69198232e-03
55 1 24.21348510 1.00076143 8.39645219 -6.01735171e-03
56 1 24.21201531 1.12170866 8.39930984 -5.43527194e-03
57 1 0.12330077 0.00212366 -0.24561953 -4.80862070e-03
58 1 0.24689214 0.00377463 -0.24508762 -5.62714142e-03
59 1 0.37052872 0.00402638 -0.24412575 -6.00619986e-03
60 1 0.49469005 0.00397395 -0.24244906 -6.09052560e-03
61 1 0.61846777 0.00407470 -0.23983837 -6.09206826e-03
62 1 0.74235552 0.00489658 -0.23643945 -5.94781856e-03
63 1 0.86610077 0.00574126 -0.23243573 -5.82025544e-03
64 1 0.98973273 0.00521741 -0.22608376 -5.95871849e-03
65 1 1.11423344 0.00539865 -0.22003282 -6.09232315e-03
66 1 1.23818887 0.00508988 -0.21337496 -6.09205550e-03
67 1 1.36174311 0.00538954 -0.20542345 -6.08598370e-03
68 1 1.48540666 0.00611050 -0.19577709 -6.07933546e-03
69 1 1.60885842 0.00628750 -0.18681351 -6.08488133e-03
70 1 1.73224788 0.00625555 -0.17638479 -6.08161608e-03
71 1 1.85542211 0.00631853 -0.16525420 -6.08881076e-03
72 1 1.97936660 0.00618383 -0.15308469 -6.09207793e-03
73 1 2.10280352 0.00641439 -0.14048823 -6.09206431e-03
74 1 2.22610137 0.00708439 -0.12646385 -6.09206920e-03
75 1 2.34925534 0.00707074 -0.11215858 -6.09206749e-03
76 1 2.47200259 0.00690775 -0.09714093 -6.09206826e-03
77 1 2.59454460 0.00698760 -0.08151699 -6.09206901e-03
78 1 2.71739439 0.00639480 -0.06533684 -6.08547783e-03
79 1 2.83988039 0.00674955 -0.04841913 -6.07797420e-03
80 1 2.96227046 0.00763866 -0.03076425 -6.08460882e-03
81 1 3.08460895 0.00731465 -0.01253842 -6.08123045e-03
82 1 3.20665070 0.00760328 0.00658754 -6.08867780e-03
83 1 3.32848873 0.00784476 0.02634010 -6.09206866e-03
84 1 3.45055995 0.00802819 0.04683567 -6.09206839e-03
85 1 3.57221013 0.00775141 0.06750463 -6.09206833e-03
86 1 3.69400154 0.00752939 0.08912480 -6.09206826e-03
87 1 3.81584985 0.00821427 0.11126469 -6.09206824e-03
88 1 3.93725097 0.00849709 0.13368819 -6.09206825e-03
89 1 4.05869076 0.00812076 0.15651161 -6.10477040e-03
90 1 4.17997213 0.00871817 0.18003213 -6.10144793e-03
91 1 4.30075017 0.00882249 0.20423587 -6.09206826e-03
92 1 4.42200677 0.00881000 0.22863801 -6.08473760e-03
93 1 4.54255704 0.00890360 0.25365969 -6.07718969e-03
94 1 4.66323641 0.00928403 0.27942810 -6.08430762e-03
95 1 4.78374602 0.00967399 0.30541893 -6.08084602e-03
96 1 4.90437373 0.00967787 0.33171037 -6.08857506e-03
97 1 5.02492998 0.01031763 0.35886034 -6.09439460e-03
98 1 5.14528890 0.01008830 0.38648086 -6.09360296e-03
99 1 5.26529346 0.01036887 0.41496134 -6.10212083e-03
100 1 5.38546578 0.01033629 0.44347078 -6.09455787e-03
101 1 5.50514355 0.01099157 0.47236977 -6.08457013e-03
102 1 5.62476715 0.01103690 0.50189968 -6.08334006e-03
103 1 5.74478365 0.01108593 0.53223686 -6.09025173e-03
104 1 5.86400628 0.01127415 0.56266200 -6.09206826e-03
105 1 5.98333779 0.01144831 0.59345222 -6.09206826e-03
106 1 6.10251444 0.01201151 0.62481189 -6.08838437e-03
107 1 6.22141817 0.01220075 0.65650846 -6.09329454e-03
108 1 6.34070888 0.01200322 0.68857018 -6.09400483e-03
109 1 6.45960514 0.01243691 0.72115844 -6.08872179e-03
110 1 6.57850812 0.01286976 0.75449592 -6.08812243e-03
111 1 6.69683464 0.01309731 0.78798640 -6.09206826e-03
112 1 6.81543569 0.01324042 0.82161730 -6.09206826e-03
113 1 6.93360776 0.01338988 0.85561445 -6.09206826e-03
114 1 7.05154587 0.01375589 0.89042021 -6.06302327e-03
115 1 7.16966624 0.01353719 0.92543525 -6.06302327e-03
116 1 7.28773932 0.01377489 0.96098729 -5.90236529e-03
117 1 7.40546489 0.01404154 0.99688729 -5.81608564e-03
118 1 7.52307795 0.01426957 1.03295259 -6.10035823e-03
119 1 7.64071254 0.01443168 1.06945333 -5.08741334e-03
120 1 7.75802952 0.01457621 1.10624288 -6.87719096e-03
121 1 7.87515115 0.01490475 1.14332582 -5.18694999e-03
122 1 7.99266381 0.01480970 1.18061264 -5.00655937e-03
123 1 8.10959262 0.01511059 1.21840276 -7.17602109e-03
124 1 8.22656581 0.01557275 1.25645525 -5.64123658e-03
125 1 8.34372151 0.01583888 1.29486197 -5.91249038e-03
126 1 8.46032048 0.01588384 1.33345712 -5.77202514e-03
127 1 8.57689635 0.01610998 1.37233905 -5.95689302e-03
128 1 8.69362867 0.01646322 1.41155711 -6.09206826e-03
129 1 8.81009896 0.01636668 1.45118055 -6.09206826e-03
130 1 8.92637561 0.01657686 1.49096124 -6.09206826e-03
131 1 9.04256179 0.01687566 1.53095673 -6.00199927e-03
132 1 9.15885447 0.01748293 1.57128861 -6.06987486e-03
133 1 9.27496622 0.01771400 1.61197164 -5.02835518e-03
134 1 9.39086286 0.01785094 1.65289107 -6.79157831e-03
135 1 9.50645968 0.01830484 1.69427500 -4.92113473e-03
136 1 9.62230197 0.01827291 1.73577398 -5.56259368e-03
137 1 9.73801508 0.01828333 1.77770685 -5.94323360e-03
138 1 9.85354088 0.01872521 1.82006297 -5.00637084e-03
139 1 9.96874085 0.01876548 1.86227551 -6.75640181e-03
140 1 10.08392086 0.01872503 1.90485997 -4.91035923e-03
141 1 10.19895167 0.01889468 1.94776589 -5.75765677e-03
142 1 10.31406155 0.01912335 1.99072738 -6.37465021e-03
143 1 10.42906817 0.01951644 2.03389520 -6.33172667e-03
144 1 10.54388444 0.01978210 2.07730896 -5.77695765e-03
145 1 10.65879901 0.02020437 2.12095487 -5.75602868e-03
146 1 10.77352105 0.02030026 2.16472967 -5.94989338e-03
147 1 10.88794925 0.02039788 2.20899663 -6.09206826e-03
148 1 11.00247973 0.02083194 2.25344681 -6.09206826e-03
149 1 11.11689398 0.02084483 2.29813734 -6.49862787e-03
150 1 11.23124062 0.02115024 2.34313719 -6.47806478e-03
151 1 11.34549622 0.02113178 2.38814019 -5.98398651e-03
152 1 11.45970522 0.02146580 2.43353552 -5.97118729e-03
153 1 11.57370983 0.02148802 2.47896446 -6.32827249e-03
154 1 11.68769435 0.02169709 2.52452051 -6.38296841e-03
155 1 11.80163311 0.02215086 2.57030427 -6.09206826e-03
156 1 11.91539513 0.02210982 2.61643491 -5.92176613e-03
157 1 12.02904831 0.02235545 2.66260211 -5.84196899e-03
158 1 12.14250895 0.02249484 2.70891892 -5.89327746e-03
159 1 12.25610845 0.02274764 2.75564864 -4.96011300e-03
160 1 12.36953069 0.02295196 2.80235447 -6.65158567e-03
161 1 12.48284937 0.02312119 2.84935137 -4.90989307e-03
162 1 12.59631055 0.02327716 2.89641257 -5.52395043e-03
163 1 12.70953292 0.02360317 2.94372288 -5.87068470e-03
164 1 12.82267134 0.02376722 2.99113094 -4.88602194e-03
165 1 12.93568909 0.02399673 3.03872500 -6.40279006e-03
166 1 13.04868257 0.02413531 3.08642549 -5.12407601e-03
167 1 13.16157904 0.02425097 3.13434587 -4.88216806e-03
168 1 13.27443281 0.02439814 3.18235365 -6.38017819e-03
169 1 13.38718490 0.02473833 3.23054790 -5.11373203e-03
170 1 13.49986964 0.02483264 3.27890319 -4.85398664e-03
171 1 13.61254675 0.02497408 3.32740411 -6.35577596e-03
172 1 13.72501374 0.02526182 3.37608280 -5.10698016e-03
173 1 13.83758934 0.02527993 3.42481537 -4.85870271e-03
174 1 13.94995720 0.02546263 3.47384933 -6.37702085e-03
175 1 14.06235363 0.02549729 3.52282781 -5.10092274e-03
176 1 14.17465064 0.02573539 3.57198698 -4.84968636e-03
177 1 14.28683793 0.02595367 3.62130059 -6.37599125e-03
178 1 14.39907539 0.02611930 3.67073476 -4.87710407e-03
179 1 14.51124174 0.02629797 3.72034764 -5.56677439e-03
180 1 14.62335279 0.02632844 3.77001263 -5.93477518e-03
181 1 14.73536172 0.02658908 3.81986001 -6.09206826e-03
182 1 14.84733722 0.02668661 3.86978056 -6.09206826e-03
183 1 14.95921870 0.02689991 3.91981878 -5.98211588e-03
184 1 15.07100171 0.02702389 3.96998325 -5.88223740e-03
185 1 15.18276776 0.02720549 4.02034402 -5.93479953e-03
186 1 15.29450237 0.02715787 4.07080302 -4.77734034e-03
187 1 15.40609947 0.02732786 4.12131339 -6.31776323e-03
188 1 15.51770384 0.02754524 4.17191090 -4.85845554e-03
189 1 15.62928867 0.02771961 4.22270242 -5.48045656e-03
190 1 15.74077785 0.02781194 4.27355366 -5.74774533e-03
191 1 15.85214204 0.02788201 4.32451629 -5.91938606e-03
192 1 15.96354099 0.02796045 4.37568085 -4.72601755e-03
193 1 16.07488723 0.02813628 4.42688435 -6.44309587e-03
194 1 16.18610855 0.02825744 4.47811003 -5.21392668e-03
195 1 16.29735695 0.02836446 4.52938524 -4.32492230e-03
196 1 16.40857132 0.02848197 4.58082031 -6.11554878e-03
197 1 16.51966807 0.02859513 4.63237357 -5.20526136e-03
198 1 16.63083941 0.02873306 4.68403176 -4.31230685e-03
199 1 16.74185271 0.02885002 4.73567113 -6.11716232e-03
200 1 16.85279442 0.02905063 4.78750028 -5.69773107e-03
201 1 16.96377893 0.02906199 4.83937362 -5.99314584e-03
202 1 17.07472187 0.02922210 4.89136594 -4.76350900e-03
203 1 17.18554670 0.02927961 4.94348286 -5.21120302e-03
204 1 17.29640644 0.02939667 4.99558930 -6.01204532e-03
205 1 17.40715428 0.02947553 5.04776604 -5.73233737e-03
206 1 17.51792736 0.02950955 5.10006438 -5.81943467e-03
207 1 17.62858076 0.02964659 5.15241576 -6.32655047e-03
208 1 17.73930626 0.02971915 5.20488381 -5.03614005e-03
209 1 17.84993659 0.02980870 5.25731827 -4.70280803e-03
210 1 17.96047414 0.02989417 5.30990859 -8.65683464e-03
211 1 18.07105452 0.03003394 5.36252705 -5.94692004e-03
212 1 18.18151171 0.03010732 5.41526212 -5.65885778e-03
213 1 18.29205957 0.03018581 5.46800767 -5.99277035e-03
214 1 18.40248192 0.03021822 5.52085634 -6.04066598e-03
215 1 18.51286738 0.03026706 5.57372153 -6.09206826e-03
216 1 18.62328617 0.03044807 5.62671655 -6.09206826e-03
217 1 18.73359966 0.03053280 5.67969511 -6.09206826e-03
218 1 18.84394899 0.03054738 5.73273799 -5.94140402e-03
219 1 18.95423225 0.03059724 5.78583620 -6.09135703e-03
220 1 19.06448611 0.03069354 5.83899177 -6.09135703e-03
221 1 19.17475189 0.03076980 5.89220797 -6.09206826e-03
222 1 19.28495838 0.03083762 5.94545782 -6.22362401e-03
223 1 19.39510037 0.03095925 5.99875748 -6.30618064e-03
224 1 19.50527110 0.03099660 6.05210586 -6.16079228e-03
225 1 19.61540708 0.03103757 6.10548152 -6.90076158e-03
226 1 19.72549786 0.03111387 6.15890165 -7.19612184e-03
227 1 19.83559869 0.03118649 6.21237034 -6.17999120e-03
228 1 19.94565976 0.03128356 6.26588848 -5.85545161e-03
229 1 20.05568994 0.03133890 6.31943839 -6.04373412e-03
230 1 20.16571043 0.03143149 6.37306380 -6.05837687e-03
231 1 20.27571426 0.03146941 6.42670887 -6.22625934e-03
232 1 20.38566580 0.03150997 6.48037490 -6.96326852e-03
233 1 20.49563303 0.03157144 6.53407587 -6.60839364e-03
234 1 20.60553085 0.03164749 6.58783616 -6.08325267e-03
235 1 20.71541356 0.03170074 6.64164095 -5.98999100e-03
236 1 20.82530373 0.03176935 6.69546220 -6.02220795e-03
237 1 20.93516730 0.03179768 6.74931831 -5.94934321e-03
238 1 21.04501035 0.03184415 6.80319925 -6.23085673e-03
239 1 21.15482092 0.03190326 6.85709328 -5.91383044e-03
240 1 21.26465221 0.03197364 6.91103146 -5.82022831e-03
241 1 21.37444267 0.03201127 6.96497715 -6.06616825e-03
242 1 21.48423062 0.03203292 7.01898174 -6.09206826e-03
243 1 21.59397676 0.03209398 7.07298848 -6.22108889e-03
244 1 21.70372875 0.03217723 7.12700745 -6.93510095e-03
245 1 21.81345332 0.03222796 7.18106388 -6.55067958e-03
246 1 21.92319771 0.03226375 7.23512825 -5.44215936e-03
247 1 22.03289202 0.03232238 7.28920964 -5.52453627e-03
248 1 22.14260027 0.03238718 7.34332460 -6.11677386e-03
249 1 22.25227547 0.03242892 7.39743659 -5.40422112e-03
250 1 22.36195813 0.03245757 7.45158510 -5.51625079e-03
251 1 22.47162665 0.03249586 7.50575326 -6.10817079e-03
252 1 22.58127838 0.03253662 7.55992966 -5.39058303e-03
253 1 22.69091816 0.03258363 7.61412056 -5.51111698e-03
254 1 22.80056222 0.03261565 7.66832043 -6.09959331e-03
255 1 22.91018873 0.03265763 7.72252528 -5.37708140e-03
256 1 23.01980711 0.03271857 7.77674911 -5.50601994e-03
257 1 23.12942152 0.03275499 7.83097049 -6.09132348e-03
258 1 23.23902646 0.03278934 7.88520733 -5.36406280e-03
259 1 23.34862156 0.03283566 7.93945752 -5.50114066e-03
260 1 23.45820974 0.03287776 7.99370715 -6.07613573e-03
261 1 23.56779759 0.03292004 8.04796554 -5.86576563e-03
262 1 23.67738343 0.03296130 8.10222255 -5.87763703e-03
263 1 23.78696674 0.03300675 8.15648602 -5.79509293e-03
264 1 23.89654147 0.03305106 8.21075111 -6.45795830e-03
265 1 24.00611346 0.03309010 8.26501980 -6.36067877e-03
266 1 24.11568003 0.03313219 8.31928778 -5.01672083e-03
267 1 0.12147755 -0.00168216 0.24422809 4.80862070e-03
268 1 0.24276984 -0.00321046 0.24429188 5.62714142e-03
269 1 0.36398405 -0.00326754 0.24492363 6.00619986e-03
270 1 0.48501105 -0.00348691 0.24736303 6.09052560e-03
271 1 0.60524285 -0.00450404 0.24997095 6.09206826e-03
272 1 0.72630940 -0.00499338 0.25310591 5.94781856e-03
273 1 0.84721009 -0.00513697 0.25778629 5.82025544e-03
274 1 0.96738856 -0.00422077 0.26262836 5.95871849e-03
275 1 1.08763643 -0.00411813 0.26882619 6.09232315e-03
276 1 1.20827314 -0.00428717 0.27627307 6.09205550e-03
277 1 1.32875891 -0.00381687 0.28357809 6.08598370e-03
278 1 1.44952804 -0.00417265 0.29167582 6.07933546e-03
279 1 1.57027044 -0.00435312 0.30124048 6.08488133e-03
280 1 1.69008797 -0.00426245 0.31116413 6.08161608e-03
281 1 1.81055451 -0.00459653 0.32230668 6.08881076e-03
282 1 1.93120351 -0.00480157 0.33413469 6.09207793e-03
283 1 2.05047460 -0.00439836 0.34619162 6.09206431e-03
284 1 2.17105942 -0.00361176 0.35929400 6.09206920e-03
285 1 2.29121081 -0.00375633 0.37362974 6.09206749e-03
286 1 2.41144965 -0.00360432 0.38859096 6.09206826e-03
287 1 2.53160372 -0.00333850 0.40362403 6.09206901e-03
288 1 2.65184986 -0.00356031 0.42018217 6.08547783e-03
289 1 2.77151990 -0.00331894 0.43652597 6.07797420e-03
290 1 2.89125324 -0.00301435 0.45394118 6.08460882e-03
291 1 3.01116885 -0.00247091 0.47181529 6.08123045e-03
292 1 3.13101712 -0.00225154 0.49079435 6.08867780e-03
293 1 3.25023432 -0.00223027 0.50977225 6.09206866e-03
294 1 3.36976025 -0.00254165 0.52947651 6.09206839e-03
295 1 3.48915312 -0.00195205 0.55007301 6.09206833e-03
296 1 3.60856246 -0.00191998 0.57120921 6.09206826e-03
297 1 3.72814021 -0.00190541 0.59290122 6.09206824e-03
298 1 3.84711118 -0.00197707 0.61488443 6.09206825e-03
299 1 3.96620932 -0.00177241 0.63767518 6.10477040e-03
300 1 4.08493215 -0.00132223 0.66069043 6.10144793e-03
301 1 4.20421823 -0.00111136 0.68439552 6.09206826e-03
302 1 4.32328426 -0.00091634 0.70857524 6.08473760e-03
303 1 4.44228804 -0.00116000 0.73278372 6.07718969e-03
304 1 4.56122692 -0.00148622 0.75785798 6.08430762e-03
305 1 4.67972693 -0.00049359 0.78368534 6.08084602e-03
306 1 4.79814681 -0.00048773 0.80980533 6.08857506e-03
307 1 4.91647482 -0.00062873 0.83659471 6.09439460e-03
308 1 5.03478425 -0.00067212 0.86386659 6.09360296e-03
309 1 5.15288461 0.00010715 0.89130416 6.10212083e-03
310 1 5.27069167 0.00005448 0.91940669 6.09455787e-03
311 1 5.38878236 0.00018639 0.94806563 6.08457013e-03
312 1 5.50678138 0.00049308 0.97714990 6.08334006e-03
313 1 5.62446137 0.00066048 1.00653685 6.09025173e-03
314 1 5.74220989 0.00057617 1.03650199 6.09206826e-03
315 1 5.86012639 0.00060735 1.06706462 6.09206826e-03
316 1 5.97755961 0.00088653 1.09785045 6.08838437e-03
317 1 6.09475061 0.00135872 1.12942000 6.09329454e-03
318 1 6.21171951 0.00085472 1.16123145 6.09400483e-03
319 1 6.32907081 0.00104004 1.19333047 6.08872179e-03
320 1 6.44635183 0.00128455 1.22580333 6.08812243e-03
321 1 6.56320036 0.00170374 1.25843219 6.09206826e-03
322 1 6.68007202 0.00179775 1.29197614 6.09206826e-03
323 1 6.79688559 0.00225875 1.32603861 6.09206826e-03
324 1 6.91336396 0.00233100 1.36022875 6.06302327e-03
325 1 7.02981254 0.00268259 1.39485290 6.06302327e-03
326 1 7.14617798 0.00287100 1.42976221 5.90236529e-03
327 1 7.26264097 0.00317837 1.46523599 5.81608564e-03
328 1 7.37902449 0.00362051 1.50101893 6.10035823e-03
329 1 7.49502966 0.00351488 1.53711259 5.08741347e-03
330 1 7.61151725 0.00362487 1.57331387 6.88423117e-03
331 1 7.72737919 0.00398487 1.61026353 4.95164977e-03
332 1 7.84303614 0.00419817 1.64694403 5.63292633e-03
333 1 7.95887845 0.00420472 1.68436240 5.95654755e-03
334 1 8.07468344 0.00437588 1.72198176 6.00432988e-03
335 1 8.19035801 0.00470386 1.75989132 6.08757506e-03
336 1 8.30589007 0.00490824 1.79818873 5.05700823e-03
337 1 8.42145125 0.00484928 1.83664425 6.83715280e-03
338 1 8.53682453 0.00520355 1.87532899 4.93632937e-03
339 1 8.65221612 0.00517121 1.91463045 5.62467055e-03
340 1 8.76732200 0.00514089 1.95393985 5.95386311e-03
341 1 8.88222732 0.00537809 1.99368581 6.00199927e-03
342 1 8.99734638 0.00553716 2.03376335 6.06987486e-03
343 1 9.11196869 0.00564486 2.07397468 5.01509653e-03
344 1 9.22699259 0.00594345 2.11446230 6.78511241e-03
345 1 9.34168719 0.00601461 2.15528385 4.92113473e-03
346 1 9.45628403 0.00609998 2.19661484 5.61645056e-03
347 1 9.57065784 0.00650677 2.23810916 5.95118153e-03
348 1 9.68510125 0.00658772 2.27974382 6.09206826e-03
349 1 9.79925820 0.00684401 2.32185889 6.09206826e-03
350 1 9.91354824 0.00696930 2.36398557 6.09206826e-03
351 1 10.02786752 0.00723421 2.40652051 6.50085567e-03
352 1 10.14203152 0.00740446 2.44915128 6.38496347e-03
353 1 10.25623384 0.00754534 2.49203861 5.77251663e-03
354 1 10.37007527 0.00766944 2.53512280 5.73476969e-03
355 1 10.48409828 0.00778901 2.57848334 5.94888879e-03
356 1 10.59791816 0.00769128 2.62202634 6.09206826e-03
357 1 10.71157208 0.00807735 2.66579465 6.09206826e-03
358 1 10.82522680 0.00816917 2.70991517 6.09206826e-03
359 1 10.93871921 0.00819410 2.75417609 6.09206826e-03
360 1 11.05193427 0.00849571 2.79879430 4.98457375e-03
361 1 11.16544400 0.00876201 2.84359454 6.69756871e-03
362 1 11.27884249 0.00902716 2.88859281 5.15375987e-03
363 1 11.39196350 0.00915940 2.93363564 4.95985007e-03
364 1 11.50512015 0.00930157 2.97887814 6.48212442e-03
365 1 11.61830269 0.00937618 3.02453898 5.14927068e-03
366 1 11.73131051 0.00966880 3.07020598 4.95341033e-03
367 1 11.84421362 0.00956360 3.11620387 6.46347279e-03
368 1 11.95703065 0.00999955 3.16220483 5.14043101e-03
369 1 12.06972908 0.00998218 3.20852507 4.91020010e-03
370 1 12.18264264 0.01024800 3.25499123 6.45556760e-03
371 1 12.29538637 0.01041204 3.30168361 4.90989307e-03
372 1 12.40800498 0.01048716 3.34854176 5.52395043e-03
373 1 12.52053813 0.01075321 3.39552506 5.87068470e-03
374 1 12.63290840 0.01093283 3.44270897 4.87920209e-03
375 1 12.74536661 0.01102163 3.49001109 6.41661913e-03
376 1 12.85770092 0.01120088 3.53749847 4.89988333e-03
377 1 12.97005636 0.01143885 3.58507792 5.51681014e-03
378 1 13.08231981 0.01161480 3.63288640 5.85936171e-03
379 1 13.19436398 0.01170361 3.68087128 4.85938456e-03
380 1 13.30646121 0.01190586 3.72887735 6.38254444e-03
381 1 13.41862408 0.01194257 3.77708427 4.88995824e-03
382 1 13.53062292 0.01210103 3.82554413 5.57476230e-03
383 1 13.64251577 0.01244645 3.87410548 5.93743790e-03
384 1 13.75435120 0.01235857 3.92273734 5.98766457e-03
385 1 13.86619507 0.01253551 3.97148588 5.96043235e-03
386 1 13.97792561 0.01277817 4.02051078 4.81637844e-03
387 1 14.08969578 0.01286283 4.06970871 6.34214196e-03
388 1 14.20142356 0.01305821 4.11885494 4.87620659e-03
389 1 14.31304319 0.01321717 4.16816242 5.56677439e-03
390 1 14.42463448 0.01325486 4.21758137 5.93477518e-03
391 1 14.53607700 0.01338446 4.26716732 5.98532808e-03
392 1 14.64753305 0.01359326 4.31691932 5.94249673e-03
393 1 14.75889686 0.01363528 4.36673273 4.79106117e-03
394 1 14.87023458 0.01369983 4.41674425 6.34873408e-03
395 1 14.98145001 0.01403655 4.46684080 5.10720957e-03
396 1 15.09265002 0.01401958 4.51708726 4.79385489e-03
397 1 15.20388329 0.01407271 4.56738494 6.33054845e-03
398 1 15.31508754 0.01413486 4.61790534 5.10009402e-03
399 1 15.42610109 0.01427811 4.66837801 4.78369059e-03
400 1 15.53726011 0.01449981 4.71905906 6.31203828e-03
401 1 15.64829227 0.01459620 4.76982070 5.09300092e-03
402 1 15.75917437 0.01475247 4.82066140 4.74903927e-03
403 1 15.87006812 0.01485623 4.87172194 6.32830758e-03
404 1 15.98105814 0.01499553 4.92278869 5.08343922e-03
405 1 16.09190068 0.01508614 4.97404805 4.32591159e-03
406 1 16.20268727 0.01510331 5.02527791 6.00104739e-03
407 1 16.31348012 0.01533017 5.07668201 5.21119202e-03
408 1 16.42411410 0.01533883 5.12806567 6.09206826e-03
409 1 16.53485905 0.01541730 5.17962142 6.05153388e-03
410 1 16.64546235 0.01557866 5.23122535 5.91774538e-03
411 1 16.75612730 0.01564518 5.28293935 6.22305381e-03
412 1 16.86670528 0.01579559 5.33481261 5.03791106e-03
413 1 16.97721749 0.01586173 5.38673292 4.72607940e-03
414 1 17.08776832 0.01600280 5.43872021 8.71836332e-03
415 1 17.19824563 0.01603905 5.49079111 5.95355142e-03
416 1 17.30869348 0.01618216 5.54291521 5.36960420e-03
417 1 17.41910581 0.01615869 5.59512661 6.03255871e-03
418 1 17.52947532 0.01627826 5.64738362 5.00245570e-03
419 1 17.63976370 0.01634160 5.69971181 4.70280803e-03
420 1 17.75007321 0.01651243 5.75218268 8.65685956e-03
421 1 17.86034083 0.01658543 5.80471398 5.94692135e-03
422 1 17.97063358 0.01663845 5.85727042 5.65886656e-03
423 1 18.08086385 0.01674217 5.90994832 5.98663784e-03
424 1 18.19099158 0.01682944 5.96266593 6.03862808e-03
425 1 18.30116119 0.01688299 6.01542448 6.08821513e-03
426 1 18.41134719 0.01697824 6.06826140 6.17296108e-03
427 1 18.52148931 0.01705084 6.12118763 6.04911048e-03
428 1 18.63157551 0.01719428 6.17411339 6.99423467e-03
429 1 18.74165188 0.01727546 6.22712420 6.49916941e-03
430 1 18.85171752 0.01733058 6.28018119 6.05139015e-03
431 1 18.96169469 0.01743804 6.33332649 6.07023001e-03
432 1 19.07171981 0.01747804 6.38645340 6.06423220e-03
433 1 19.18171098 0.01754285 6.43966141 6.03339671e-03
434 1 19.29171609 0.01758450 6.49289490 6.06123277e-03
435 1 19.40163325 0.01770158 6.54619821 6.05523286e-03
436 1 19.51155760 0.01773606 6.59954685 6.01539697e-03
437 1 19.62148657 0.01785000 6.65295322 6.05223237e-03
438 1 19.73140063 0.01788604 6.70635575 6.04623034e-03
439 1 19.84122421 0.01795976 6.75981854 5.99739088e-03
440 1 19.95109955 0.01802893 6.81335871 6.03386113e-03
441 1 20.06094486 0.01809504 6.86694980 6.06015229e-03
442 1 20.17073579 0.01813945 6.92053567 6.93292310e-03
443 1 20.28049555 0.01823537 6.97418703 6.60839364e-03
444 1 20.39026851 0.01827980 7.02787166 6.08325267e-03
445 1 20.50002775 0.01836652 7.08158388 5.98999100e-03
446 1 20.60978503 0.01843298 7.13534678 6.02220795e-03
447 1 20.71951884 0.01850029 7.18913158 5.94934321e-03
448 1 20.82923982 0.01853430 7.24294858 6.00521256e-03
449 1 20.93895585 0.01860425 7.29683068 5.96042100e-03
450 1 21.04863543 0.01867635 7.35069298 6.01327673e-03
451 1 21.15832797 0.01875938 7.40461283 6.06616825e-03
452 1 21.26800669 0.01880210 7.45854038 6.09206826e-03
453 1 21.37767527 0.01885787 7.51250838 6.22108889e-03
454 1 21.48734485 0.01891317 7.56649092 6.93510095e-03
455 1 21.59699145 0.01897131 7.62049611 6.55067958e-03
456 1 21.70660797 0.01902732 7.67452193 5.44215936e-03
457 1 21.81624836 0.01907328 7.72856376 5.52453627e-03
458 1 21.92587626 0.01914321 7.78263996 6.09206826e-03
459 1 22.03548293 0.01920712 7.83673672 5.52769247e-03
460 1 22.14509144 0.01925128 7.89084083 5.54504444e-03
461 1 22.25469145 0.01931004 7.94498563 6.09206826e-03
462 1 22.36426995 0.01935633 7.99912463 5.52433613e-03
463 1 22.47386824 0.01941064 8.05328714 5.54169116e-03
464 1 22.58344929 0.01947688 8.10745660 6.09959331e-03
465 1 22.69302946 0.01951657 8.16163913 5.37708140e-03
466 1 22.80261081 0.01957173 8.21584428 5.50601994e-03
467 1 22.91218414 0.01962063 8.27006072 6.09132348e-03
468 1 23.02174604 0.01967382 8.32428252 5.36406280e-03
469 1 23.13131683 0.01972667 8.37851503 5.50114066e-03
470 1 23.24087948 0.01978101 8.43274716 6.07613573e-03
471 1 23.35044853 0.01982966 8.48699793 5.86576563e-03
472 1 23.46000973 0.01988474 8.54125178 5.87763704e-03
473 1 23.56957171 0.01993943 8.59550423 5.79509293e-03
474 1 23.67912786 0.01998695 8.64976920 6.45795830e-03
475 1 23.78868834 0.02003654 8.70402888 6.36067877e-03
476 1 23.89824841 0.02008919 8.75829306 5.01672083e-03
477 1 0.12305030 1.20826782 -0.24464590 -5.06599779e-03
478 1 0.24624714 1.20759267 -0.24479587 -5.96099493e-03
479 1 0.37014003 1.20630566 -0.24338308 -6.06828787e-03
480 1 0.49408656 1.20669181 -0.24149202 -6.09081051e-03
481 1 0.61784238 1.20664568 -0.23832514 -6.09597885e-03
482 1 0.74156687 1.20684732 -0.23464573 -6.09677124e-03
483 1 0.86603280 1.20613786 -0.22967291 -6.09261604e-03
484 1 0.98991537 1.20667095 -0.22416757 -6.09210769e-03
485 1 1.11415137 1.20617107 -0.21687872 -6.09159289e-03
486 1 1.23760521 1.20629115 -0.20938762 -6.09258964e-03
487 1 1.36135308 1.20761356 -0.20172139 -6.11404233e-03
488 1 1.48474608 1.20782678 -0.19245732 -6.12924398e-03
489 1 1.60788098 1.20703349 -0.18268659 -6.13810471e-03
490 1 1.73121345 1.20721906 -0.17245563 -6.10740278e-03
491 1 1.85474273 1.20710033 -0.16101860 -6.11299929e-03
492 1 1.97811337 1.20739290 -0.14802197 -6.11651709e-03
493 1 2.10121562 1.20712032 -0.13582293 -6.10892752e-03
494 1 2.22436014 1.20828667 -0.12210798 -6.08383817e-03
495 1 2.34754817 1.20882429 -0.10744938 -6.07811671e-03
496 1 2.47010771 1.20861663 -0.09181862 -6.12167487e-03
497 1 2.59253119 1.20823210 -0.07611056 -6.12891596e-03
498 1 2.71521986 1.20893009 -0.05984416 -6.13439434e-03
499 1 2.83799232 1.20949641 -0.04221059 -6.11877956e-03
500 1 2.96039009 1.20908520 -0.02417359 -6.09486572e-03
501 1 3.08258707 1.20972783 -0.00558776 -6.09206826e-03
502 1 3.20516171 1.20980952 0.01377889 -6.09206855e-03
503 1 3.32703006 1.20989923 0.03389502 -6.09206932e-03
504 1 3.44838286 1.21021016 0.05445292 -6.11378764e-03
505 1 3.57088827 1.21120524 0.07559659 -6.10132488e-03
506 1 3.69202213 1.21154775 0.09741725 -6.14015253e-03
507 1 3.81337807 1.21137373 0.11943893 -6.18862768e-03
508 1 3.93435969 1.21200345 0.14272368 -6.20494803e-03
509 1 4.05551627 1.21214193 0.16569180 -6.16689241e-03
510 1 4.17631683 1.21229012 0.18969947 -6.13536340e-03
511 1 4.29729061 1.21236383 0.21384979 -6.09206826e-03
512 1 4.41800086 1.21248303 0.23854791 -6.09528258e-03
513 1 4.53891663 1.21307227 0.26359675 -6.10197805e-03
514 1 4.65984668 1.21303093 0.28929471 -6.09705471e-03
515 1 4.78020092 1.21345146 0.31562240 -6.06436498e-03
516 1 4.90084179 1.21326331 0.34279815 -6.12133674e-03
517 1 5.02084343 1.21376183 0.36995457 -6.20974613e-03
518 1 5.14097243 1.21425286 0.39775598 -6.24802334e-03
519 1 5.26074755 1.21457956 0.42613370 -6.19819175e-03
520 1 5.38081977 1.21422982 0.45500130 -6.15088270e-03
521 1 5.50079526 1.21457037 0.48435582 -6.13301438e-03
522 1 5.62029154 1.21529349 0.51413577 -6.10131989e-03
523 1 5.74003153 1.21541991 0.54445547 -6.05757291e-03
524 1 5.85935334 1.21594838 0.57515245 -6.04491082e-03
525 1 5.97827420 1.21599831 0.60659543 -6.05437557e-03
526 1 6.09758346 1.21663549 0.63812585 -6.06489385e-03
527 1 6.21638135 1.21704318 0.67007302 -6.09206826e-03
528 1 6.33516176 1.21746718 0.70260585 -6.09206826e-03
529 1 6.45389924 1.21726546 0.73558367 -6.09979510e-03
530 1 6.57231439 1.21757699 0.76893943 -6.12512692e-03
531 1 6.69081465 1.21812965 0.80258787 -6.16578501e-03
532 1 6.80912029 1.21804736 0.83700113 -6.26929389e-03
533 1 6.92702853 1.21833910 0.87130666 -6.28695529e-03
534 1 7.04540341 1.21901823 0.90583899 -6.28583704e-03
535 1 7.16330910 1.21902427 0.94100239 -6.23881179e-03
536 1 7.28134365 1.21932592 0.97670642 -6.30184580e-03
537 1 7.39896622 1.21968142 1.01266136 -6.28022129e-03
538 1 7.51657387 1.22003108 1.04878334 -6.24103982e-03
539 1 7.63419621 1.22039306 1.08529778 -6.33470904e-03
540 1 7.75171582 1.22019573 1.12254121 -6.28101331e-03
541 1 7.86875200 1.22079137 1.15979641 -6.25562069e-03