ITEM: TIMESTEP
0
ITEM: NUMBER OF ATOMS
10710
ITEM: BOX BOUNDS ff ff ff
-2.0 26.753722348113133
-2.0039012624618167 3.221773711522033
-2.2454173876538706 9.314275343009726
ITEM: ATOMS id type x y z q
1 2 0.00000000 0.00000000 0.24527477 3.35542180e-03
2 2 0.00000000 0.00000000 -0.24472523 -3.35542180e-03
3 2 0.00000000 1.21000000 0.24527477 3.41686920e-03
4 2 0.00000000 1.21000000 -0.24472523 -3.41686920e-03
5 1 24.56736442 -0.00315283 7.28942823 3.37776783e-03
6 1 24.75372235 0.00759081 6.83633348 -3.37776783e-03
7 1 24.55826611 1.20654333 7.31427534 3.41686920e-03
8 1 24.74462248 1.21722180 6.86118169 -3.41686920e-03
9 2 0.00000000 0.00000000 -0.12222523 0.00000000e+00
10 2 0.00000000 0.00000000 0.00027477 0.00000000e+00
11 2 0.00000000 0.00000000 0.12277477 0.00000000e+00
12 2 0.00000000 0.12100000 0.24527477 5.18139194e-03
13 2 0.00000000 0.24200000 0.24527477 5.50362000e-03
14 2 0.00000000 0.36300000 0.24527477 5.01501884e-03
15 2 0.00000000 0.48400000 0.24527477 5.50904170e-03
16 2 0.00000000 0.60500000 0.24527477 6.02408537e-03
17 2 0.00000000 0.72600000 0.24527477 6.86123120e-03
18 2 0.00000000 0.84700000 0.24527477 6.83241897e-03
19 2 0.00000000 0.96800000 0.24527477 5.84994208e-03
20 2 0.00000000 1.08900000 0.24527477 4.96878236e-03
21 2 0.00000000 1.21000000 -0.12222523 0.00000000e+00
22 2 0.00000000 1.21000000 0.00027477 0.00000000e+00
23 2 0.00000000 1.21000000 0.12277477 0.00000000e+00
24 2 0.00000000 0.12100000 -0.24472523 -5.18139194e-03
25 2 0.00000000 0.24200000 -0.24472523 -5.50362000e-03
26 2 0.00000000 0.36300000 -0.24472523 -5.01501884e-03
27 2 0.00000000 0.48400000 -0.24472523 -5.50904170e-03
28 2 0.00000000 0.60500000 -0.24472523 -6.02408537e-03
29 2 0.00000000 0.72600000 -0.24472523 -6.86123120e-03
30 2 0.00000000 0.84700000 -0.24472523 -6.83241897e-03
31 2 0.00000000 0.96800000 -0.24472523 -5.84994208e-03
32 2 0.00000000 1.08900000 -0.24472523 -4.96878236e-03
33 1 24.70712874 0.00490218 6.94960439 0.00000000e+00
34 1 24.66054147 0.00221722 7.06287654 0.00000000e+00
35 1 24.61395450 -0.00046659 7.17615160 0.00000000e+00
36 1 24.56645533 0.11781318 7.29192158 5.05002864e-03
37 1 24.56553976 0.23878382 7.29441234 5.64089052e-03
38 1 24.56462729 0.35975248 7.29690385 5.44128437e-03
39 1 24.56372062 0.48072370 7.29939001 6.40224548e-03
40 1 24.56280973 0.60169539 7.30188094 6.88148315e-03
41 1 24.56189987 0.72266553 7.30436232 6.11583422e-03
42 1 24.56099083 0.84363616 7.30684249 5.69198232e-03
43 1 24.56008131 0.96460561 7.30932295 6.01735171e-03
44 1 24.55917411 1.08557662 7.31180098 5.43527194e-03
45 1 24.69803124 1.21455380 6.97445140 0.00000000e+00
46 1 24.65144404 1.21188272 7.08772515 0.00000000e+00
47 1 24.60485819 1.20921211 7.20099943 0.00000000e+00
48 1 24.75280557 0.12855267 6.83882516 -5.05002864e-03
49 1 24.75189579 0.24951604 6.84131955 -5.64089052e-03
50 1 24.75098117 0.37048103 6.84380862 -5.44128437e-03
51 1 24.75007164 0.49144326 6.84629544 -6.40224548e-03
52 1 24.74916329 0.61240539 6.84878171 -6.88148315e-03
53 1 24.74825608 0.73336784 6.85126730 -6.11583422e-03
54 1 24.74734539 0.85433051 6.85374589 -5.69198232e-03
55 1 24.74643710 0.97529510 6.85622517 -6.01735171e-03
56 1 24.74552664 1.09625889 6.85870281 -5.43527194e-03
57 1 0.12304004 0.00160039 -0.24541739 -4.80862070e-03
58 1 0.24629930 0.00284687 -0.24504535 -5.62714142e-03
59 1 0.36959079 0.00303875 -0.24434968 -6.00619986e-03
60 1 0.49327005 0.00300069 -0.24312041 -6.09052560e-03
61 1 0.61667242 0.00307658 -0.24119301 -6.09206826e-03
62 1 0.74016608 0.00369435 -0.23867595 -5.94781856e-03
63 1 0.86355632 0.00433359 -0.23571739 -5.82025544e-03
64 1 0.98687735 0.00393501 -0.23097333 -5.95871849e-03
65 1 1.11085406 0.00406492 -0.22647747 -6.09232315e-03
66 1 1.23442826 0.00382202 -0.22151368 -6.09205550e-03
67 1 1.35771907 0.00404074 -0.21556547 -6.08598370e-03
68 1 1.48111661 0.00457951 -0.20834172 -6.07933546e-03
69 1 1.60434189 0.00469603 -0.20162760 -6.08488133e-03
70 1 1.72754435 0.00465598 -0.19380749 -6.08161608e-03
71 1 1.85059424 0.00468654 -0.18544571 -6.08881076e-03
72 1 1.97425925 0.00456388 -0.17630722 -6.09207793e-03
73 1 2.09754406 0.00472398 -0.16684088 -6.09206431e-03
74 1 2.22075253 0.00521935 -0.15627943 -6.09206920e-03
75 1 2.34385724 0.00518750 -0.14550187 -6.09206749e-03
76 1 2.46666573 0.00503959 -0.13416618 -6.09206826e-03
77 1 2.58933273 0.00507243 -0.12236684 -6.09206901e-03
78 1 2.71225199 0.00459014 -0.11014372 -6.08547783e-03
79 1 2.83491795 0.00483526 -0.09734763 -6.07797420e-03
80 1 2.95753103 0.00549854 -0.08399137 -6.08460882e-03
81 1 3.08011553 0.00521330 -0.07017708 -6.08123045e-03
82 1 3.20249961 0.00540464 -0.05566749 -6.08867780e-03
83 1 3.32474720 0.00555877 -0.04066298 -6.09206866e-03
84 1 3.44720077 0.00566814 -0.02508728 -6.09206839e-03
85 1 3.56933375 0.00541336 -0.00936609 -6.09206833e-03
86 1 3.69160776 0.00520438 0.00709616 -6.09206826e-03
87 1 3.81395029 0.00570553 0.02395594 -6.09206824e-03
88 1 3.93595422 0.00588610 0.04105283 -6.09206825e-03
89 1 4.05800117 0.00554614 0.05846572 -6.10477040e-03
90 1 4.17995188 0.00597633 0.07642378 -6.10144793e-03
91 1 4.30153022 0.00601289 0.09494440 -6.09206826e-03
92 1 4.42349599 0.00595570 0.11359924 -6.08473760e-03
93 1 4.54493011 0.00598351 0.13277118 -6.07718969e-03
94 1 4.66649692 0.00623813 0.15252862 -6.08430762e-03
95 1 4.78793889 0.00649732 0.17246865 -6.08084602e-03
96 1 4.90948940 0.00644690 0.19264569 -6.08857506e-03
97 1 5.03101980 0.00690814 0.21350117 -6.09439460e-03
98 1 5.15241257 0.00667149 0.23474847 -6.09360296e-03
99 1 5.27356093 0.00684492 0.25669108 -6.10212083e-03
100 1 5.39484716 0.00676302 0.27865212 -6.09455787e-03
101 1 5.51575724 0.00723375 0.30094742 -6.08457013e-03
102 1 5.63665052 0.00721217 0.32375571 -6.08334006e-03
103 1 5.75790144 0.00719325 0.34719707 -6.09025173e-03
104 1 5.87851643 0.00728684 0.37074163 -6.09206826e-03
105 1 5.99923588 0.00736476 0.39457777 -6.09206826e-03
106 1 6.11986074 0.00776215 0.41888365 -6.08838437e-03
107 1 6.24027968 0.00785191 0.44347588 -6.09329454e-03
108 1 6.36103296 0.00762299 0.46835008 -6.09400483e-03
109 1 6.48149368 0.00791425 0.49367338 -6.08872179e-03
110 1 6.60200322 0.00820505 0.51960798 -6.08812243e-03
111 1 6.72204467 0.00832387 0.54569761 -6.09206826e-03
112 1 6.84232100 0.00837245 0.57189012 -6.09206826e-03
113 1 6.96226479 0.00842481 0.59840550 -6.09206826e-03
114 1 7.08205861 0.00865661 0.62560199 -6.06302327e-03
115 1 7.20201340 0.00840317 0.65296229 -6.06302327e-03
116 1 7.32196308 0.00853028 0.68076877 -5.90236529e-03
117 1 7.44164554 0.00867726 0.70888519 -5.81608564e-03
118 1 7.56124060 0.00879412 0.73714849 -6.10035823e-03
119 1 7.68088153 0.00885335 0.76577617 -5.08741334e-03
120 1 7.80027239 0.00890000 0.79466317 -6.87719096e-03
121 1 7.91951652 0.00909904 0.82380623 -5.18694999e-03
122 1 8.03910379 0.00893991 0.85310326 -5.00655937e-03
123 1 8.15822886 0.00911618 0.88285307 -7.17602109e-03
124 1 8.27741015 0.00942770 0.91282359 -5.64123658e-03
125 1 8.39676577 0.00957218 0.94309249 -5.91249038e-03
126 1 8.51566273 0.00952514 0.97355184 -5.77202514e-03
127 1 8.63455421 0.00963470 1.00425826 -5.95689302e-03
128 1 8.75360343 0.00985207 1.03524232 -6.09206826e-03
129 1 8.87245302 0.00968170 1.06659204 -6.09206826e-03
130 1 8.99114979 0.00977508 1.09808802 -6.09206826e-03
131 1 9.10978198 0.00994618 1.12977411 -6.00199927e-03
132 1 9.22853040 0.01038466 1.16174432 -6.06987486e-03
133 1 9.34714369 0.01049465 1.19403545 -5.02835518e-03
134 1 9.46558499 0.01052484 1.22654430 -6.79157831e-03
135 1 9.58379461 0.01083085 1.25947856 -4.92113473e-03
136 1 9.70222624 0.01070889 1.29249940 -5.56259368e-03
137 1 9.82057596 0.01062405 1.32590940 -5.94323360e-03
138 1 9.93879070 0.01092079 1.35970644 -5.00637084e-03
139 1 10.05671014 0.01086108 1.39339841 -6.75640181e-03
140 1 10.17463302 0.01072666 1.42742620 -4.91035923e-03
141 1 10.29244670 0.01077949 1.46174553 -5.75765677e-03
142 1 10.41033726 0.01088526 1.49610889 -6.37465021e-03
143 1 10.52815070 0.01113854 1.53066449 -6.33172667e-03
144 1 10.64581071 0.01127771 1.56545458 -5.77695765e-03
145 1 10.76357686 0.01155645 1.60044899 -5.75602868e-03
146 1 10.88117871 0.01153902 1.63557197 -5.94989338e-03
147 1 10.99854779 0.01152412 1.67116198 -6.09206826e-03
148 1 11.11602543 0.01181727 1.70691065 -6.09206826e-03
149 1 11.23341410 0.01172465 1.74288833 -6.49862787e-03
150 1 11.35076333 0.01189825 1.77915725 -6.47806478e-03
151 1 11.46803059 0.01177250 1.81543389 -5.98398651e-03
152 1 11.58528472 0.01197393 1.85207687 -5.97118729e-03
153 1 11.70235119 0.01188489 1.88876613 -6.32827249e-03
154 1 11.81941117 0.01196712 1.92557526 -6.38296841e-03
155 1 11.93644756 0.01228102 1.96259673 -6.09206826e-03
156 1 12.05334352 0.01213068 1.99995971 -5.92176613e-03
157 1 12.17014179 0.01224972 2.03736419 -5.84196899e-03
158 1 12.28677061 0.01226611 2.07492456 -5.89327746e-03
159 1 12.40356185 0.01239035 2.11286464 -4.96011300e-03
160 1 12.52018504 0.01246946 2.15079276 -6.65158567e-03
161 1 12.63672982 0.01251310 2.18900691 -4.90989307e-03
162 1 12.75341674 0.01254386 2.22727541 -5.52395043e-03
163 1 12.86989662 0.01274008 2.26580064 -5.87068470e-03
164 1 12.98630625 0.01277879 2.30442481 -4.88602194e-03
165 1 13.10261151 0.01288061 2.34323834 -6.40279006e-03
166 1 13.21890410 0.01289289 2.38215663 -5.12407601e-03
167 1 13.33511888 0.01288133 2.42129895 -4.88216806e-03
168 1 13.45129941 0.01290304 2.46052609 -6.38017819e-03
169 1 13.56739707 0.01311250 2.49994601 -5.11373203e-03
170 1 13.68344143 0.01307767 2.53953246 -4.85398664e-03
171 1 13.79948930 0.01309262 2.57926091 -6.35577596e-03
172 1 13.91534421 0.01325066 2.61918432 -5.10698016e-03
173 1 14.03131071 0.01314020 2.65915526 -4.85870271e-03
174 1 14.14709507 0.01319449 2.69944007 -6.37702085e-03
175 1 14.26290400 0.01309942 2.73966967 -5.10092274e-03
176 1 14.37862926 0.01320741 2.78008834 -4.84968636e-03
177 1 14.49425768 0.01329779 2.82067041 -6.37599125e-03
178 1 14.60994726 0.01333195 2.86137323 -4.87710407e-03
179 1 14.72557943 0.01338073 2.90226561 -5.56677439e-03
180 1 14.84115963 0.01327721 2.94321376 -5.93477518e-03
181 1 14.95665256 0.01341171 2.98435629 -6.09206826e-03
182 1 15.07211628 0.01337503 3.02558143 -6.09206826e-03
183 1 15.18749446 0.01346029 3.06693495 -5.98211588e-03
184 1 15.30278234 0.01345235 3.10842767 -5.88223740e-03
185 1 15.41806711 0.01350367 3.15012515 -5.93479953e-03
186 1 15.53332627 0.01331237 3.19193401 -4.77734034e-03
187 1 15.64844890 0.01335114 3.23380352 -6.31776323e-03
188 1 15.76358777 0.01343875 3.27576858 -4.85845554e-03
189 1 15.87872291 0.01348242 3.31794110 -5.48045656e-03
190 1 15.99376252 0.01343720 3.36018455 -5.74774533e-03
191 1 16.10867724 0.01336936 3.40255753 -5.91938606e-03
192 1 16.22364724 0.01330903 3.44514590 -4.72601755e-03
193 1 16.33856553 0.01335644 3.48777881 -6.44309587e-03
194 1 16.45334773 0.01334093 3.53044970 -5.21392668e-03
195 1 16.56816628 0.01331021 3.57317279 -4.32492230e-03
196 1 16.68296279 0.01329321 3.61607162 -6.11554878e-03
197 1 16.79764119 0.01327048 3.65911093 -5.20526136e-03
198 1 16.91241180 0.01327353 3.70226098 -4.31230685e-03
199 1 17.02700828 0.01325632 3.74540204 -6.11716232e-03
200 1 17.14154150 0.01333005 3.78875974 -5.69773107e-03
201 1 17.25612533 0.01319308 3.83216584 -5.99314584e-03
202 1 17.37067556 0.01322279 3.87570823 -4.76350900e-03
203 1 17.48510316 0.01313466 3.91940289 -5.21120302e-03
204 1 17.59957130 0.01311369 3.96308286 -6.01204532e-03
205 1 17.71391876 0.01305225 4.00685091 -5.73233737e-03
206 1 17.82830553 0.01294105 4.05075755 -5.81943467e-03
207 1 17.94256191 0.01294347 4.09473396 -6.32655047e-03
208 1 18.05691252 0.01287239 4.13884187 -5.03614005e-03
209 1 18.17115116 0.01282203 4.18291731 -4.70280803e-03
210 1 18.28529774 0.01276915 4.22717988 -8.65683464e-03
211 1 18.39949667 0.01277513 4.27147447 -5.94692004e-03
212 1 18.51356026 0.01270354 4.31591960 -5.65885778e-03
213 1 18.62773312 0.01263984 4.36036511 -5.99277035e-03
214 1 18.74176607 0.01252080 4.40494887 -6.04066598e-03
215 1 18.85575813 0.01242135 4.44955424 -6.09206826e-03
216 1 18.96980377 0.01247921 4.49431403 -6.09206826e-03
217 1 19.08372167 0.01242159 4.53906175 -6.09206826e-03
218 1 19.19768849 0.01228080 4.58388382 -5.94140402e-03
219 1 19.31158183 0.01218148 4.62877927 -6.09135703e-03
220 1 19.42544593 0.01213858 4.67374707 -6.09135703e-03
221 1 19.53933003 0.01207304 4.71878768 -6.09206826e-03
222 1 19.65314558 0.01199420 4.76387809 -6.22362401e-03
223 1 19.76688701 0.01198277 4.80903494 -6.30618064e-03
224 1 19.88066830 0.01186614 4.85424992 -6.16079228e-03
225 1 19.99441028 0.01175583 4.89950137 -6.90076158e-03
226 1 20.10810083 0.01168931 4.94481306 -7.19612184e-03
227 1 20.22180898 0.01161768 4.99018476 -6.17999120e-03
228 1 20.33547292 0.01157662 5.03562308 -5.85545161e-03
229 1 20.44910181 0.01148431 5.08110383 -6.04373412e-03
230 1 20.56272616 0.01144061 5.12668169 -6.05837687e-03
231 1 20.67633007 0.01132235 5.17229028 -6.22625934e-03
232 1 20.78986996 0.01121069 5.21793002 -6.96326852e-03
233 1 20.90343618 0.01112553 5.26361290 -6.60839364e-03
234 1 21.01691849 0.01105928 5.30937986 -6.08325267e-03
235 1 21.13038307 0.01096181 5.35520736 -5.98999100e-03
236 1 21.24386079 0.01088780 5.40105397 -6.02220795e-03
237 1 21.35730630 0.01075728 5.44695267 -5.94934321e-03
238 1 21.47072776 0.01065222 5.49288552 -6.23085673e-03
239 1 21.58410843 0.01056402 5.53883750 -5.91383044e-03
240 1 21.69752119 0.01048973 5.58484920 -5.82022831e-03
241 1 21.81088142 0.01037211 5.63087436 -6.06616825e-03
242 1 21.92424291 0.01023425 5.67697932 -6.09206826e-03
243 1 22.03754952 0.01014856 5.72309014 -6.22108889e-03
244 1 22.15086622 0.01009654 5.76921929 -6.93510095e-03
245 1 22.26414809 0.00999755 5.81540354 -6.55067958e-03
246 1 22.37745822 0.00987631 5.86159698 -5.44215936e-03
247 1 22.49070241 0.00978803 5.90781826 -5.52453627e-03
248 1 22.60396891 0.00971039 5.95408433 -6.11677386e-03
249 1 22.71718834 0.00959767 6.00035369 -5.40422112e-03
250 1 22.83042267 0.00946708 6.04667113 -5.51625079e-03
251 1 22.94363979 0.00935291 6.09301721 -6.10817079e-03
252 1 23.05683481 0.00924019 6.13937864 -5.39058303e-03
253 1 23.17001625 0.00913777 6.18576097 -5.51111698e-03
254 1 23.28320333 0.00901242 6.23215644 -6.09959331e-03
255 1 23.39636499 0.00889984 6.27856190 -5.37708140e-03
256 1 23.50951957 0.00881935 6.32499608 -5.50601994e-03
257 1 23.62266737 0.00870158 6.37142654 -6.09132348e-03
258 1 23.73580314 0.00857958 6.41788149 -5.36406280e-03
259 1 23.84892789 0.00847548 6.46435605 -5.50114066e-03
260 1 23.96203933 0.00836283 6.51083190 -6.07613573e-03
261 1 24.07515308 0.00825320 6.55731934 -5.86576563e-03
262 1 24.18826086 0.00813702 6.60380942 -5.87763703e-03
263 1 24.30136822 0.00802888 6.65030745 -5.79509293e-03
264 1 24.41446230 0.00791941 6.69680963 -6.45795830e-03
265 1 24.52755537 0.00780517 6.74331663 -6.36067877e-03
266 1 24.64064114 0.00769469 6.78982308 -5.01672083e-03
267 1 0.12168499 -0.00125487 0.24447731 4.80862070e-03
268 1 0.24322127 -0.00240065 0.24450977 5.62714142e-03
269 1 0.36469761 -0.00244754 0.24496884 6.00619986e-03
270 1 0.48604069 -0.00262168 0.24677453 6.09052560e-03
271 1 0.60678217 -0.00339686 0.24872115 6.09206826e-03
272 1 0.72814514 -0.00377619 0.25106357 5.94781856e-03
273 1 0.84939613 -0.00390126 0.25455424 5.82025544e-03
274 1 0.97010571 -0.00323748 0.25818214 5.95871849e-03
275 1 1.09087844 -0.00318477 0.26284025 6.09232315e-03
276 1 1.21195140 -0.00333228 0.26842941 6.09205550e-03
277 1 1.33291135 -0.00299931 0.27391971 6.08598370e-03
278 1 1.45408691 -0.00329151 0.28002079 6.07933546e-03
279 1 1.57526663 -0.00345205 0.28722052 6.08488133e-03
280 1 1.69574564 -0.00341139 0.29471649 6.08161608e-03
281 1 1.81672930 -0.00369187 0.30313275 6.08881076e-03
282 1 1.93786917 -0.00387885 0.31206243 6.09207793e-03
283 1 2.05796023 -0.00360308 0.32119906 6.09206431e-03
284 1 2.17906995 -0.00303152 0.33111263 6.09206920e-03
285 1 2.29987541 -0.00317484 0.34197351 6.09206749e-03
286 1 2.42076442 -0.00309052 0.35332044 6.09206826e-03
287 1 2.54158620 -0.00291992 0.36472867 6.09206901e-03
288 1 2.66251379 -0.00313079 0.37729845 6.08547783e-03
289 1 2.78298710 -0.00298719 0.38972339 6.07797420e-03
290 1 2.90353971 -0.00279032 0.40297488 6.08460882e-03
291 1 3.02424604 -0.00241049 0.41657518 6.08123045e-03
292 1 3.14492747 -0.00228214 0.43103431 6.08867780e-03
293 1 3.26512209 -0.00230698 0.44551620 6.09206866e-03
294 1 3.38556797 -0.00259353 0.46055193 6.09206839e-03
295 1 3.50594293 -0.00218355 0.47628440 6.09206833e-03
296 1 3.62634153 -0.00220261 0.49244240 6.09206826e-03
297 1 3.74689257 -0.00223771 0.50902774 6.09206824e-03
298 1 3.86697465 -0.00234478 0.52586581 6.09206825e-03
299 1 3.98718080 -0.00223246 0.54332872 6.10477040e-03
300 1 4.10710271 -0.00193028 0.56098501 6.10144793e-03
301 1 4.22748856 -0.00181671 0.57916098 6.09206826e-03
302 1 4.34771870 -0.00171609 0.59772439 6.08473760e-03
303 1 4.46789617 -0.00196456 0.61631266 6.07718969e-03
304 1 4.58805411 -0.00227980 0.63558923 6.08430762e-03
305 1 4.70789531 -0.00154805 0.65547122 6.08084602e-03
306 1 4.82768122 -0.00160063 0.67559905 6.08857506e-03
307 1 4.94741764 -0.00176917 0.69626868 6.09439460e-03
308 1 5.06716152 -0.00186254 0.71731691 6.09360296e-03
309 1 5.18674486 -0.00129993 0.73850495 6.10212083e-03
310 1 5.30611422 -0.00140580 0.76024545 6.09455787e-03
311 1 5.42573525 -0.00136133 0.78241447 6.08457013e-03
312 1 5.54530132 -0.00117928 0.80493330 6.08334006e-03
313 1 5.66462212 -0.00110752 0.82771151 6.09025173e-03
314 1 5.78402049 -0.00124201 0.85095255 6.09206826e-03
315 1 5.90358312 -0.00128277 0.87467190 6.09206826e-03
316 1 6.02276226 -0.00112353 0.89859327 6.08838437e-03
317 1 6.14178117 -0.00080728 0.92316260 6.09329454e-03
318 1 6.26062535 -0.00128846 0.94794774 6.09400483e-03
319 1 6.37979688 -0.00120696 0.97294611 6.08872179e-03
320 1 6.49892989 -0.00107840 0.99825149 6.08812243e-03
321 1 6.61771274 -0.00080945 1.02371046 6.09206826e-03
322 1 6.73656051 -0.00080297 1.04992024 6.09206826e-03
323 1 6.85538620 -0.00049533 1.07655518 6.09206826e-03
324 1 6.97393899 -0.00051011 1.10331857 6.06302327e-03
325 1 7.09248869 -0.00029643 1.13043914 6.06302327e-03
326 1 7.21098237 -0.00021750 1.15780472 5.90236529e-03
327 1 7.32958685 -0.00003808 1.18563085 5.81608564e-03
328 1 7.44814119 0.00025382 1.21372329 6.10035823e-03
329 1 7.56639130 0.00008617 1.24210148 5.08741347e-03
330 1 7.68505139 0.00009919 1.27054044 6.88423117e-03
331 1 7.80322863 0.00032197 1.29964079 4.95164977e-03
332 1 7.92121649 0.00041942 1.32852868 5.63292633e-03
333 1 8.03939923 0.00034111 1.35803106 5.95654755e-03
334 1 8.15756217 0.00040314 1.38770501 6.00432988e-03
335 1 8.27562734 0.00059698 1.41762920 6.08757506e-03
336 1 8.39359457 0.00068694 1.44789733 5.05700823e-03
337 1 8.51159371 0.00054906 1.47829914 6.83715280e-03
338 1 8.62944416 0.00076461 1.50890564 4.93632937e-03
339 1 8.74734821 0.00064703 1.54004217 5.62467055e-03
340 1 8.86500392 0.00053083 1.57120458 5.95386311e-03
341 1 8.98250924 0.00064427 1.60275048 6.00199927e-03
342 1 9.10022133 0.00069106 1.63457378 6.06987486e-03
343 1 9.21750482 0.00069132 1.66654665 5.01509653e-03
344 1 9.33515774 0.00086039 1.69873188 6.78511241e-03
345 1 9.45253869 0.00082725 1.73123080 4.92113473e-03
346 1 9.56986870 0.00080687 1.76418255 5.61645056e-03
347 1 9.68701083 0.00106958 1.79729141 5.95118153e-03
348 1 9.80422113 0.00104555 1.83052168 6.09206826e-03
349 1 9.92120715 0.00117519 1.86419106 6.09206826e-03
350 1 10.03831052 0.00118921 1.89786759 6.09206826e-03
351 1 10.15546629 0.00132762 1.93190282 6.50085567e-03
352 1 10.27249040 0.00137983 1.96603328 6.38496347e-03
353 1 10.38956433 0.00140514 2.00038958 5.77251663e-03
354 1 10.50632365 0.00141322 2.03494766 5.73476969e-03
355 1 10.62326368 0.00141796 2.06974395 5.94888879e-03
356 1 10.74003362 0.00122446 2.10471906 6.09206826e-03
357 1 10.85666583 0.00146841 2.13990900 6.09206826e-03
358 1 10.97332098 0.00144708 2.17541820 6.09206826e-03
359 1 11.08983642 0.00136261 2.21106586 6.09206826e-03
360 1 11.20612078 0.00153278 2.24705872 4.98457375e-03
361 1 11.32268710 0.00167057 2.28320050 6.69756871e-03
362 1 11.43916501 0.00180667 2.31953106 5.15375987e-03
363 1 11.55538652 0.00181878 2.35592365 4.95985007e-03
364 1 11.67165399 0.00183946 2.39249735 6.48212442e-03
365 1 11.78797601 0.00179479 2.42945933 5.14927068e-03
366 1 11.90413322 0.00195680 2.46643961 4.95341033e-03
367 1 12.02021200 0.00174280 2.50373839 6.46347279e-03
368 1 12.13621051 0.00203955 2.54104347 5.14043101e-03
369 1 12.25211734 0.00190725 2.57866166 4.91020010e-03
370 1 12.36823832 0.00204325 2.61640127 6.45556760e-03
371 1 12.48421457 0.00208042 2.65436649 4.90989307e-03
372 1 12.60008176 0.00203348 2.69250034 5.52395043e-03
373 1 12.71587661 0.00217003 2.73076006 5.87068470e-03
374 1 12.83152638 0.00222361 2.76922655 4.87920209e-03
375 1 12.94726779 0.00218755 2.80780016 6.41661913e-03
376 1 13.06290376 0.00223790 2.84655946 4.89988333e-03
377 1 13.17856564 0.00234775 2.88540714 5.51681014e-03
378 1 13.29415375 0.00239670 2.92448527 5.85936171e-03
379 1 13.40953946 0.00235830 2.96375357 4.85938456e-03
380 1 13.52497643 0.00243196 3.00303707 6.38254444e-03
381 1 13.64049363 0.00233754 3.04251458 4.88995824e-03
382 1 13.75586679 0.00236750 3.08225557 5.57476230e-03
383 1 13.87114240 0.00258315 3.12210383 5.93743790e-03
384 1 13.98636272 0.00236204 3.16202834 5.98766457e-03
385 1 14.10160091 0.00240856 3.20206730 5.96043235e-03
386 1 14.21674495 0.00252423 3.24239437 4.81637844e-03
387 1 14.33193934 0.00247630 3.28289329 6.34214196e-03
388 1 14.44708779 0.00254040 3.32334182 4.87620659e-03
389 1 14.56213788 0.00256782 3.36396233 5.56677439e-03
390 1 14.67716617 0.00247068 3.40470062 5.93477518e-03
391 1 14.79205472 0.00246920 3.44562351 5.98532808e-03
392 1 14.90696961 0.00254735 3.48671032 5.94249673e-03
393 1 15.02179208 0.00245392 3.52787184 4.79106117e-03
394 1 15.13660311 0.00238308 3.56924159 6.34873408e-03
395 1 15.25129288 0.00259605 3.61070574 5.10720957e-03
396 1 15.36597415 0.00243690 3.65233155 4.79385489e-03
397 1 15.48069467 0.00235340 3.69400663 6.33054845e-03
398 1 15.59540270 0.00227559 3.73592120 5.10009402e-03
399 1 15.70990386 0.00228582 3.77779967 4.78369059e-03
400 1 15.82457622 0.00237944 3.81988795 6.31203828e-03
401 1 15.93911885 0.00233593 3.86207047 5.09300092e-03
402 1 16.05350498 0.00235881 3.90435161 4.74903927e-03
403 1 16.16792083 0.00232647 3.94686948 6.32830758e-03
404 1 16.28244278 0.00233117 3.98938268 5.08343922e-03
405 1 16.39681848 0.00228427 4.03212161 4.32591159e-03
406 1 16.51112905 0.00215493 4.07483415 6.00104739e-03
407 1 16.62546129 0.00225682 4.11773246 5.21119202e-03
408 1 16.73961438 0.00211601 4.16062327 6.09206826e-03
409 1 16.85390517 0.00205193 4.20369279 6.05153388e-03
410 1 16.96804229 0.00208127 4.24682961 5.91774538e-03
411 1 17.08225654 0.00200539 4.29008250 6.22305381e-03
412 1 17.19638607 0.00202319 4.33352047 5.03791106e-03
413 1 17.31044471 0.00194470 4.37701809 4.72607940e-03
414 1 17.42455230 0.00195411 4.42058890 8.71836332e-03
415 1 17.53858259 0.00183977 4.46425889 5.95355142e-03
416 1 17.65258410 0.00184829 4.50799101 5.36960420e-03
417 1 17.76655251 0.00166540 4.55182798 6.03255871e-03
418 1 17.88047404 0.00164901 4.59572154 5.00245570e-03
419 1 17.99430488 0.00156708 4.63970275 4.70280803e-03
420 1 18.10817434 0.00161041 4.68384822 8.65685956e-03
421 1 18.22199938 0.00153743 4.72806641 5.94692135e-03
422 1 18.33585600 0.00144111 4.77231079 5.65886656e-03
423 1 18.44964845 0.00140631 4.81670546 5.98663784e-03
424 1 18.56332197 0.00135215 4.86115677 6.03862808e-03
425 1 18.67704744 0.00125734 4.90565507 6.08821513e-03
426 1 18.79079945 0.00121201 4.95024429 6.17296108e-03
427 1 18.90450710 0.00114001 4.99494323 6.04911048e-03
428 1 19.01814797 0.00115249 5.03964670 6.99423467e-03
429 1 19.13178380 0.00109217 5.08445428 6.49916941e-03
430 1 19.24541045 0.00099738 5.12931749 6.05139015e-03
431 1 19.35893662 0.00096691 5.17429707 6.07023001e-03
432 1 19.47251741 0.00085380 5.21925145 6.06423220e-03
433 1 19.58606440 0.00077148 5.26430840 6.03339671e-03
434 1 19.69962907 0.00065964 5.30939624 6.06123277e-03
435 1 19.81309250 0.00064122 5.35457562 6.05523286e-03
436 1 19.92656783 0.00052050 5.39981285 6.01539697e-03
437 1 20.04005534 0.00050018 5.44512043 6.05223237e-03
438 1 20.15352220 0.00038089 5.49042652 6.04623034e-03
439 1 20.26687981 0.00030713 5.53581280 5.99739088e-03
440 1 20.38031067 0.00022889 5.58129501 6.03386113e-03
441 1 20.49370793 0.00014903 5.62684605 6.06015229e-03
442 1 20.60703358 0.00004149 5.67239804 6.93292310e-03
443 1 20.72032576 -0.00000169 5.71803330 6.60839364e-03
444 1 20.83363691 -0.00010879 5.76371374 6.08325267e-03
445 1 20.94693364 -0.00016226 5.80942898 5.98999100e-03
446 1 21.06023200 -0.00024106 5.85521351 6.02220795e-03
447 1 21.17350077 -0.00032003 5.90102892 5.94934321e-03
448 1 21.28675410 -0.00044301 5.94688849 6.00521256e-03
449 1 21.40000844 -0.00051955 5.99283073 5.96042100e-03
450 1 21.51321032 -0.00058977 6.03875550 6.01327673e-03
451 1 21.62643724 -0.00064956 6.08475143 6.06616825e-03
452 1 21.73964215 -0.00075833 6.13076461 6.09206826e-03
453 1 21.85283974 -0.00085474 6.17682725 6.22108889e-03
454 1 21.96603896 -0.00094883 6.22291325 6.93510095e-03
455 1 22.07920916 -0.00103712 6.26903448 6.55067958e-03
456 1 22.19234129 -0.00113175 6.31518576 5.44215936e-03
457 1 22.30550600 -0.00123955 6.36135679 5.52453627e-03
458 1 22.41865661 -0.00131231 6.40757626 6.09206826e-03
459 1 22.53178186 -0.00139438 6.45382701 5.52769247e-03
460 1 22.64491072 -0.00150158 6.50008964 5.54504444e-03
461 1 22.75802996 -0.00158893 6.54640849 6.09206826e-03
462 1 22.87111872 -0.00169546 6.59272307 5.52433613e-03
463 1 22.98423648 -0.00178914 6.63906918 5.54169116e-03
464 1 23.09733027 -0.00186367 6.68542873 6.09959331e-03
465 1 23.21042248 -0.00197610 6.73180979 5.37708140e-03
466 1 23.32352046 -0.00207043 6.77821648 5.50601994e-03
467 1 23.43660828 -0.00216942 6.82464184 6.09132348e-03
468 1 23.54967972 -0.00226516 6.87107777 5.36406280e-03
469 1 23.66276359 -0.00236205 6.91752860 5.50114066e-03
470 1 23.77583653 -0.00245471 6.96398099 6.07613573e-03
471 1 23.88892131 -0.00255818 7.01045815 5.86576563e-03
472 1 24.00199451 -0.00265186 7.05694091 5.87763704e-03
473 1 24.11506792 -0.00274668 7.10342453 5.79509293e-03
474 1 24.22814048 -0.00285010 7.14992423 6.45795830e-03
475 1 24.34121400 -0.00294926 7.19642061 6.36067877e-03
476 1 24.45428924 -0.00304778 7.24292310 5.01672083e-03
477 1 0.12286856 1.20868899 -0.24466568 -5.06599779e-03
478 1 0.24584261 1.20817509 -0.24477843 -5.96099493e-03
479 1 0.36934046 1.20719699 -0.24373136 -6.06828787e-03
480 1 0.49288276 1.20748174 -0.24232581 -6.09081051e-03
481 1 0.61628880 1.20744041 -0.23996347 -6.09597885e-03
482 1 0.73967409 1.20758512 -0.23721768 -6.09677124e-03
483 1 0.86362875 1.20703604 -0.23351250 -6.09261604e-03
484 1 0.98715045 1.20742758 -0.22939728 -6.09210769e-03
485 1 1.11096050 1.20703109 -0.22394325 -6.09159289e-03
486 1 1.23417996 1.20710472 -0.21833385 -6.09258964e-03
487 1 1.35762802 1.20809379 -0.21259517 -6.11404233e-03
488 1 1.48082823 1.20823588 -0.20564322 -6.12924398e-03
489 1 1.60384178 1.20761195 -0.19830578 -6.13810471e-03
490 1 1.72701334 1.20773135 -0.19062206 -6.10740278e-03
491 1 1.85035738 1.20761587 -0.18202458 -6.11299929e-03
492 1 1.97361642 1.20780945 -0.17223670 -6.11651709e-03
493 1 2.09665064 1.20757417 -0.16306031 -6.10892752e-03
494 1 2.21974880 1.20844358 -0.15272218 -6.08383817e-03
495 1 2.34290521 1.20882319 -0.14166420 -6.07811671e-03
496 1 2.46560697 1.20862746 -0.12985233 -6.12167487e-03
497 1 2.58820121 1.20829827 -0.11797846 -6.12891596e-03
498 1 2.71101824 1.20880404 -0.10567892 -6.13439434e-03
499 1 2.83393977 1.20920388 -0.09233404 -6.11877956e-03
500 1 2.95658138 1.20884429 -0.07866715 -6.09486572e-03
501 1 3.07908593 1.20930356 -0.06457125 -6.09206826e-03
502 1 3.20190798 1.20932351 -0.04988144 -6.09206855e-03
503 1 3.32420765 1.20934835 -0.03459278 -6.09206932e-03
504 1 3.44612068 1.20954765 -0.01894410 -6.11378764e-03
505 1 3.56895305 1.21027558 -0.00287651 -6.10132488e-03
506 1 3.69074003 1.21049731 0.01376019 -6.14015253e-03
507 1 3.81270901 1.21031328 0.03054992 -6.18862768e-03
508 1 3.93442950 1.21076150 0.04834227 -6.20494803e-03
509 1 4.05627565 1.21081928 0.06587735 -6.16689241e-03
510 1 4.17787971 1.21088598 0.08424259 -6.13536340e-03
511 1 4.29962842 1.21088891 0.10271455 -6.09206826e-03
512 1 4.42118989 1.21092690 0.12162941 -6.09528258e-03
513 1 4.54292952 1.21134206 0.14080989 -6.10197805e-03
514 1 4.66470684 1.21125072 0.16050096 -6.09705471e-03
515 1 4.78605531 1.21152843 0.18071501 -6.06436498e-03
516 1 4.90766917 1.21131892 0.20159193 -6.12133674e-03
517 1 5.02877469 1.21165754 0.22247846 -6.20974613e-03
518 1 5.15000759 1.21199035 0.24387804 -6.24802334e-03
519 1 5.27098427 1.21218880 0.26574950 -6.19819175e-03
520 1 5.39222445 1.21184030 0.28800261 -6.15088270e-03
521 1 5.51341070 1.21205123 0.31064817 -6.13301438e-03
522 1 5.63422827 1.21256674 0.33365541 -6.10131989e-03
523 1 5.75527060 1.21260167 0.35708673 -6.05757291e-03
524 1 5.87599309 1.21296015 0.38084552 -6.04491082e-03
525 1 5.99642748 1.21293474 0.40522825 -6.05437557e-03
526 1 6.11718378 1.21338190 0.42966178 -6.06489385e-03
527 1 6.23754702 1.21364292 0.45445910 -6.09206826e-03
528 1 6.35792875 1.21391679 0.47973233 -6.09206826e-03
529 1 6.47830106 1.21367322 0.50537152 -6.09979510e-03
530 1 6.59842624 1.21385494 0.53133835 -6.12512692e-03
531 1 6.71863633 1.21423467 0.55754579 -6.16578501e-03
532 1 6.83872799 1.21408999 0.58439705 -6.26929389e-03
533 1 6.95848818 1.21425529 0.61117384 -6.28695529e-03
534 1 7.07864403 1.21473879 0.63811614 -6.28583704e-03
535 1 7.19844763 1.21466343 0.66560809 -6.23881179e-03
536 1 7.31838815 1.21483285 0.69353967 -6.30184580e-03
537 1 7.43800353 1.21505034 0.72170419 -6.28022129e-03
538 1 7.55761617 1.21526107 0.75000425 -6.24103982e-03
539 1 7.67726256 1.21548246 0.77863855 -6.33470904e-03
540 1 7.79686796 1.21523016 0.80789087 -6.28101331e-03