ITEM: TIMESTEP
0
ITEM: NUMBER OF ATOMS
10710
ITEM: BOX BOUNDS ff ff ff
-2.0 27.80636903879985
-2.0001081603686495 3.2101183391087096
-2.244725233180255 2.345127262681265
ITEM: ATOMS id type x y z q
1 2 0.00000000 0.00000000 0.24527477 3.35542180e-03
2 2 0.00000000 0.00000000 -0.24472523 -3.35542180e-03
3 2 0.00000000 1.21000000 0.24527477 3.41686920e-03
4 2 0.00000000 1.21000000 -0.24472523 -3.41686920e-03
5 1 25.80355543 -0.00010816 0.34473023 3.37776783e-03
6 1 25.80635198 0.00005348 -0.14526147 -3.37776783e-03
7 1 25.80357238 1.20989218 0.34512726 3.41686920e-03
8 1 25.80636904 1.21005205 -0.14486440 -3.41686920e-03
9 2 0.00000000 0.00000000 -0.12222523 0.00000000e+00
10 2 0.00000000 0.00000000 0.00027477 0.00000000e+00
11 2 0.00000000 0.00000000 0.12277477 0.00000000e+00
12 2 0.00000000 0.12100000 0.24527477 5.18139194e-03
13 2 0.00000000 0.24200000 0.24527477 5.50362000e-03
14 2 0.00000000 0.36300000 0.24527477 5.01501884e-03
15 2 0.00000000 0.48400000 0.24527477 5.50904170e-03
16 2 0.00000000 0.60500000 0.24527477 6.02408537e-03
17 2 0.00000000 0.72600000 0.24527477 6.86123120e-03
18 2 0.00000000 0.84700000 0.24527477 6.83241897e-03
19 2 0.00000000 0.96800000 0.24527477 5.84994208e-03
20 2 0.00000000 1.08900000 0.24527477 4.96878236e-03
21 2 0.00000000 1.21000000 -0.12222523 0.00000000e+00
22 2 0.00000000 1.21000000 0.00027477 0.00000000e+00
23 2 0.00000000 1.21000000 0.12277477 0.00000000e+00
24 2 0.00000000 0.12100000 -0.24472523 -5.18139194e-03
25 2 0.00000000 0.24200000 -0.24472523 -5.50362000e-03
26 2 0.00000000 0.36300000 -0.24472523 -5.01501884e-03
27 2 0.00000000 0.48400000 -0.24472523 -5.50904170e-03
28 2 0.00000000 0.60500000 -0.24472523 -6.02408537e-03
29 2 0.00000000 0.72600000 -0.24472523 -6.86123120e-03
30 2 0.00000000 0.84700000 -0.24472523 -6.83241897e-03
31 2 0.00000000 0.96800000 -0.24472523 -5.84994208e-03
32 2 0.00000000 1.08900000 -0.24472523 -4.96878236e-03
33 1 25.80565287 0.00001300 -0.02276364 0.00000000e+00
34 1 25.80495384 -0.00002739 0.09973428 0.00000000e+00
35 1 25.80425468 -0.00006781 0.22223227 0.00000000e+00
36 1 25.80355764 0.12089173 0.34477017 5.05002864e-03
37 1 25.80355982 0.24189174 0.34481004 5.64089052e-03
38 1 25.80356182 0.36289179 0.34484995 5.44128437e-03
39 1 25.80356375 0.48389196 0.34488962 6.40224548e-03
40 1 25.80356541 0.60489201 0.34492952 6.88148315e-03
41 1 25.80356711 0.72589202 0.34496930 6.11583422e-03
42 1 25.80356858 0.84689209 0.34500876 5.69198232e-03
43 1 25.80356993 0.96789215 0.34504834 6.01735171e-03
44 1 25.80357113 1.08889222 0.34508786 5.43527194e-03
45 1 25.80566996 1.21001207 -0.02236660 0.00000000e+00
46 1 25.80497081 1.20997204 0.10013137 0.00000000e+00
47 1 25.80427166 1.20993213 0.22262929 0.00000000e+00
48 1 25.80635405 0.12105327 -0.14522168 -5.05002864e-03
49 1 25.80635637 0.24205317 -0.14518167 -5.64089052e-03
50 1 25.80635835 0.36305307 -0.14514185 -5.44128437e-03
51 1 25.80636019 0.48405298 -0.14510202 -6.40224548e-03
52 1 25.80636195 0.60505279 -0.14506225 -6.88148315e-03
53 1 25.80636383 0.72605263 -0.14502258 -6.11583422e-03
54 1 25.80636513 0.84705243 -0.14498303 -5.69198232e-03
55 1 25.80636651 0.96805226 -0.14494352 -6.01735171e-03
56 1 25.80636762 1.08905216 -0.14490400 -5.43527194e-03
57 1 0.12231833 0.00006421 -0.24471364 -4.80862070e-03
58 1 0.24463551 0.00012306 -0.24469511 -5.62714142e-03
59 1 0.36696027 0.00014647 -0.24468000 -6.00619986e-03
60 1 0.48928933 0.00016003 -0.24466810 -6.09052560e-03
61 1 0.61161913 0.00016898 -0.24464590 -6.09206826e-03
62 1 0.73395354 0.00017722 -0.24462615 -5.94781856e-03
63 1 0.85629018 0.00018593 -0.24459406 -5.82025544e-03
64 1 0.97862263 0.00017881 -0.24453170 -5.95871849e-03
65 1 1.10096385 0.00018219 -0.24447726 -6.09232315e-03
66 1 1.22329792 0.00017783 -0.24442239 -6.09205550e-03
67 1 1.34562571 0.00017596 -0.24435789 -6.08598370e-03
68 1 1.46796211 0.00018154 -0.24427464 -6.07933546e-03
69 1 1.59029816 0.00017916 -0.24420156 -6.08488133e-03
70 1 1.71263176 0.00017922 -0.24410382 -6.08161608e-03
71 1 1.83496693 0.00018101 -0.24400585 -6.08881076e-03
72 1 1.95730752 0.00017803 -0.24389516 -6.09207793e-03
73 1 2.07964381 0.00017505 -0.24377752 -6.09206431e-03
74 1 2.20198367 0.00018139 -0.24364790 -6.09206920e-03
75 1 2.32432016 0.00017895 -0.24351418 -6.09206749e-03
76 1 2.44665123 0.00017999 -0.24337703 -6.09206826e-03
77 1 2.56898102 0.00017731 -0.24323621 -6.09206901e-03
78 1 2.69131920 0.00016438 -0.24308890 -6.08547783e-03
79 1 2.81365745 0.00016696 -0.24293471 -6.07797420e-03
80 1 2.93598952 0.00017816 -0.24276582 -6.08460882e-03
81 1 3.05832258 0.00017534 -0.24259263 -6.08123045e-03
82 1 3.18065235 0.00017613 -0.24241822 -6.08867780e-03
83 1 3.30298225 0.00017552 -0.24223578 -6.09206866e-03
84 1 3.42531222 0.00017739 -0.24204355 -6.09206839e-03
85 1 3.54763925 0.00017174 -0.24184622 -6.09206833e-03
86 1 3.66996852 0.00016472 -0.24164112 -6.09206826e-03
87 1 3.79230480 0.00016609 -0.24143480 -6.09206824e-03
88 1 3.91463235 0.00016816 -0.24122227 -6.09206825e-03
89 1 4.03696454 0.00016604 -0.24100566 -6.10477040e-03
90 1 4.15929477 0.00017754 -0.24078532 -6.10144793e-03
91 1 4.28161952 0.00018234 -0.24055452 -6.09206826e-03
92 1 4.40395110 0.00018294 -0.24032090 -6.08473760e-03
93 1 4.52627758 0.00017886 -0.24008287 -6.07718969e-03
94 1 4.64860233 0.00018376 -0.23983197 -6.08430762e-03
95 1 4.77092951 0.00018714 -0.23957864 -6.08084602e-03
96 1 4.89326123 0.00018534 -0.23931932 -6.08857506e-03
97 1 5.01558999 0.00018592 -0.23905508 -6.09439460e-03
98 1 5.13791881 0.00018124 -0.23878238 -6.09360296e-03
99 1 5.26024780 0.00018219 -0.23849893 -6.10212083e-03
100 1 5.38257405 0.00017794 -0.23821734 -6.09455787e-03
101 1 5.50489419 0.00018621 -0.23793679 -6.08457013e-03
102 1 5.62721277 0.00019137 -0.23764944 -6.08334006e-03
103 1 5.74954310 0.00019254 -0.23735472 -6.09025173e-03
104 1 5.87186174 0.00019401 -0.23705369 -6.09206826e-03
105 1 5.99418506 0.00019725 -0.23674829 -6.09206826e-03
106 1 6.11650756 0.00020044 -0.23643546 -6.08838437e-03
107 1 6.23882614 0.00020101 -0.23611566 -6.09329454e-03
108 1 6.36114835 0.00019592 -0.23579629 -6.09400483e-03
109 1 6.48347353 0.00019971 -0.23547228 -6.08872179e-03
110 1 6.60579638 0.00019920 -0.23513797 -6.08812243e-03
111 1 6.72811154 0.00020341 -0.23480472 -6.09206826e-03
112 1 6.85043396 0.00020927 -0.23447341 -6.09206826e-03
113 1 6.97275145 0.00020858 -0.23413237 -6.09206826e-03
114 1 7.09506917 0.00021382 -0.23377900 -6.06302327e-03
115 1 7.21738911 0.00020999 -0.23342376 -6.06302327e-03
116 1 7.33971143 0.00020899 -0.23306078 -5.90236529e-03
117 1 7.46202738 0.00021270 -0.23269423 -5.81608564e-03
118 1 7.58434318 0.00021106 -0.23233107 -6.10035823e-03
119 1 7.70666410 0.00021264 -0.23196351 -5.08741334e-03
120 1 7.82898145 0.00021678 -0.23159347 -6.87719096e-03
121 1 7.95129595 0.00022772 -0.23121907 -5.18694999e-03
122 1 8.07361932 0.00022101 -0.23084171 -5.00655937e-03
123 1 8.19593757 0.00022102 -0.23044419 -7.17602109e-03
124 1 8.31825220 0.00022755 -0.23005309 -5.64123658e-03
125 1 8.44057064 0.00023277 -0.22966257 -5.91249038e-03
126 1 8.56287805 0.00023244 -0.22926207 -5.77202514e-03
127 1 8.68518822 0.00023785 -0.22885925 -5.95689302e-03
128 1 8.80750471 0.00023944 -0.22845474 -6.09206826e-03
129 1 8.92982408 0.00023545 -0.22804443 -6.09206826e-03
130 1 9.05213998 0.00023681 -0.22762797 -6.09206826e-03
131 1 9.17445236 0.00024017 -0.22720758 -6.00199927e-03
132 1 9.29676654 0.00024925 -0.22678583 -6.06987486e-03
133 1 9.41908180 0.00025005 -0.22635585 -5.02835518e-03
134 1 9.54139317 0.00025152 -0.22592239 -6.79157831e-03
135 1 9.66370194 0.00026034 -0.22549027 -4.92113473e-03
136 1 9.78601958 0.00025727 -0.22505043 -5.56259368e-03
137 1 9.90833484 0.00025136 -0.22460345 -5.94323360e-03
138 1 10.03065038 0.00025198 -0.22415110 -5.00637084e-03
139 1 10.15295552 0.00024672 -0.22370081 -6.75640181e-03
140 1 10.27526666 0.00024528 -0.22325146 -4.91035923e-03
141 1 10.39757559 0.00024489 -0.22279019 -5.75765677e-03
142 1 10.51988608 0.00024182 -0.22232684 -6.37465021e-03
143 1 10.64219604 0.00024208 -0.22186364 -6.33172667e-03
144 1 10.76450504 0.00024172 -0.22139673 -5.77695765e-03
145 1 10.88681658 0.00024607 -0.22092696 -5.75602868e-03
146 1 11.00912439 0.00024489 -0.22045231 -5.94989338e-03
147 1 11.13143093 0.00024236 -0.21996968 -6.09206826e-03
148 1 11.25373969 0.00024444 -0.21948770 -6.09206826e-03
149 1 11.37604978 0.00023995 -0.21899746 -6.49862787e-03
150 1 11.49836004 0.00024318 -0.21850653 -6.47806478e-03
151 1 11.62066920 0.00024162 -0.21801147 -5.98398651e-03
152 1 11.74297941 0.00024584 -0.21751598 -5.97118729e-03
153 1 11.86528812 0.00024156 -0.21702131 -6.32827249e-03
154 1 11.98759610 0.00024346 -0.21651867 -6.38296841e-03
155 1 12.10990527 0.00024654 -0.21601460 -6.09206826e-03
156 1 12.23221248 0.00024195 -0.21550205 -5.92176613e-03
157 1 12.35451889 0.00024477 -0.21499277 -5.84196899e-03
158 1 12.47682045 0.00024444 -0.21447703 -5.89327746e-03
159 1 12.59912788 0.00024554 -0.21395362 -4.96011300e-03
160 1 12.72143003 0.00024370 -0.21342730 -6.65158567e-03
161 1 12.84373337 0.00024723 -0.21289956 -4.90989307e-03
162 1 12.96604208 0.00024699 -0.21237323 -5.52395043e-03
163 1 13.08834675 0.00024663 -0.21184406 -5.87068470e-03
164 1 13.21064783 0.00024671 -0.21131133 -4.88602194e-03
165 1 13.33294962 0.00024883 -0.21077528 -6.40279006e-03
166 1 13.45525234 0.00024743 -0.21023627 -5.12407601e-03
167 1 13.57755463 0.00024648 -0.20969304 -4.88216806e-03
168 1 13.69985668 0.00024334 -0.20914693 -6.38017819e-03
169 1 13.82215784 0.00024809 -0.20860024 -5.11373203e-03
170 1 13.94445918 0.00024725 -0.20805110 -4.85398664e-03
171 1 14.06676371 0.00024666 -0.20749744 -6.35577596e-03
172 1 14.18906235 0.00025219 -0.20694147 -5.10698016e-03
173 1 14.31136594 0.00024866 -0.20638632 -4.85870271e-03
174 1 14.43366662 0.00024946 -0.20582125 -6.37702085e-03
175 1 14.55596799 0.00024407 -0.20525633 -5.10092274e-03
176 1 14.67826832 0.00024508 -0.20468881 -4.84968636e-03
177 1 14.80056505 0.00024396 -0.20411563 -6.37599125e-03
178 1 14.92286311 0.00024514 -0.20354222 -4.87710407e-03
179 1 15.04516155 0.00024678 -0.20296729 -5.56677439e-03
180 1 15.16746395 0.00024369 -0.20239005 -5.93477518e-03
181 1 15.28976364 0.00024385 -0.20180873 -6.09206826e-03
182 1 15.41206355 0.00024167 -0.20122479 -6.09206826e-03
183 1 15.53436040 0.00023999 -0.20063979 -5.98211588e-03
184 1 15.65665826 0.00023805 -0.20005293 -5.88223740e-03
185 1 15.77895898 0.00023957 -0.19946066 -5.93479953e-03
186 1 15.90125748 0.00023698 -0.19886852 -4.77734034e-03
187 1 16.02355405 0.00023663 -0.19827319 -6.31776323e-03
188 1 16.14584925 0.00023800 -0.19767899 -4.85845554e-03
189 1 16.26814488 0.00023607 -0.19708186 -5.48045656e-03
190 1 16.39044031 0.00023452 -0.19648156 -5.74774533e-03
191 1 16.51273471 0.00023332 -0.19587827 -5.91938606e-03
192 1 16.63503184 0.00023255 -0.19527102 -4.72601755e-03
193 1 16.75732828 0.00023385 -0.19466231 -6.44309587e-03
194 1 16.87962266 0.00023380 -0.19405316 -5.21392668e-03
195 1 17.00191776 0.00023254 -0.19344446 -4.32492230e-03
196 1 17.12421149 0.00022846 -0.19282986 -6.11554878e-03
197 1 17.24650469 0.00022602 -0.19221241 -5.20526136e-03
198 1 17.36880119 0.00022471 -0.19159539 -4.31230685e-03
199 1 17.49109237 0.00022071 -0.19097484 -6.11716232e-03
200 1 17.61338474 0.00022244 -0.19034915 -5.69773107e-03
201 1 17.73567892 0.00021951 -0.18972291 -5.99314584e-03
202 1 17.85797197 0.00021917 -0.18909684 -4.76350900e-03
203 1 17.98026271 0.00021917 -0.18846665 -5.21120302e-03
204 1 18.10255559 0.00021864 -0.18783503 -6.01204532e-03
205 1 18.22484615 0.00021617 -0.18720122 -5.73233737e-03
206 1 18.34714074 0.00020883 -0.18656538 -5.81943467e-03
207 1 18.46943106 0.00020991 -0.18592560 -6.32655047e-03
208 1 18.59172340 0.00020607 -0.18528601 -5.03614005e-03
209 1 18.71401255 0.00020303 -0.18464577 -4.70280803e-03
210 1 18.83630346 0.00019996 -0.18399855 -8.65683464e-03
211 1 18.95859374 0.00020036 -0.18335125 -5.94692004e-03
212 1 19.08088224 0.00020052 -0.18270459 -5.65885778e-03
213 1 19.20317345 0.00019920 -0.18205644 -5.99277035e-03
214 1 19.32546275 0.00019564 -0.18140638 -6.04066598e-03
215 1 19.44774967 0.00019350 -0.18075543 -6.09206826e-03
216 1 19.57003978 0.00019330 -0.18010065 -6.09206826e-03
217 1 19.69232679 0.00019076 -0.17944424 -6.09206826e-03
218 1 19.81461512 0.00018639 -0.17878714 -5.94140402e-03
219 1 19.93690284 0.00018401 -0.17812835 -6.09135703e-03
220 1 20.05918966 0.00018203 -0.17746783 -6.09135703e-03
221 1 20.18147868 0.00017805 -0.17680592 -6.09206826e-03
222 1 20.30376508 0.00017580 -0.17614223 -6.22362401e-03
223 1 20.42604990 0.00017538 -0.17547861 -6.30618064e-03
224 1 20.54833637 0.00017254 -0.17481247 -6.16079228e-03
225 1 20.67062172 0.00016913 -0.17414510 -6.90076158e-03
226 1 20.79290700 0.00016618 -0.17347496 -7.19612184e-03
227 1 20.91519282 0.00016277 -0.17280504 -6.17999120e-03
228 1 21.03747749 0.00016061 -0.17213299 -5.85545161e-03
229 1 21.15976171 0.00015792 -0.17146152 -6.04373412e-03
230 1 21.28204676 0.00015563 -0.17078714 -6.05837687e-03
231 1 21.40433085 0.00015204 -0.17011285 -6.22625934e-03
232 1 21.52661401 0.00014785 -0.16943690 -6.96326852e-03
233 1 21.64889805 0.00014520 -0.16876038 -6.60839364e-03
234 1 21.77118027 0.00014341 -0.16808106 -6.08325267e-03
235 1 21.89346283 0.00014117 -0.16740016 -5.98999100e-03
236 1 22.01574555 0.00013907 -0.16671946 -6.02220795e-03
237 1 22.13802796 0.00013495 -0.16603731 -5.94934321e-03
238 1 22.26031068 0.00013192 -0.16535370 -6.23085673e-03
239 1 22.38259213 0.00012936 -0.16466860 -5.91383044e-03
240 1 22.50487403 0.00012701 -0.16398438 -5.82022831e-03
241 1 22.62715399 0.00012356 -0.16329888 -6.06616825e-03
242 1 22.74943471 0.00011951 -0.16261174 -6.09206826e-03
243 1 22.87171429 0.00011688 -0.16192437 -6.22108889e-03
244 1 22.99399443 0.00011604 -0.16123669 -6.93510095e-03
245 1 23.11627377 0.00011397 -0.16054670 -6.55067958e-03
246 1 23.23855396 0.00011157 -0.15985791 -5.44215936e-03
247 1 23.36083254 0.00010924 -0.15916751 -5.52453627e-03
248 1 23.48311177 0.00010686 -0.15847662 -6.11677386e-03
249 1 23.60538954 0.00010371 -0.15778527 -5.40422112e-03
250 1 23.72766792 0.00010009 -0.15709316 -5.51625079e-03
251 1 23.84994604 0.00009745 -0.15639969 -6.10817079e-03
252 1 23.97222355 0.00009413 -0.15570609 -5.39058303e-03
253 1 24.09450036 0.00009163 -0.15501196 -5.51111698e-03
254 1 24.21677765 0.00008827 -0.15431747 -6.09959331e-03
255 1 24.33905443 0.00008523 -0.15362299 -5.37708140e-03
256 1 24.46133093 0.00008371 -0.15292771 -5.50601994e-03
257 1 24.58360721 0.00008070 -0.15223222 -6.09132348e-03
258 1 24.70588311 0.00007790 -0.15153632 -5.36406280e-03
259 1 24.82815884 0.00007548 -0.15083983 -5.50114066e-03
260 1 24.95043383 0.00007248 -0.15014311 -6.07613573e-03
261 1 25.07270886 0.00006978 -0.14944611 -5.86576563e-03
262 1 25.19498320 0.00006661 -0.14874885 -5.87763703e-03
263 1 25.31725785 0.00006373 -0.14805173 -5.79509293e-03
264 1 25.43953162 0.00006113 -0.14735415 -6.45795830e-03
265 1 25.56180536 0.00005838 -0.14665663 -6.36067877e-03
266 1 25.68407874 0.00005582 -0.14595919 -5.01672083e-03
267 1 0.12229832 0.00002761 0.24524185 4.80862070e-03
268 1 0.24459730 0.00005534 0.24522624 5.62714142e-03
269 1 0.36690384 0.00007272 0.24522406 6.00619986e-03
270 1 0.48921091 0.00008461 0.24524461 6.09052560e-03
271 1 0.61151308 0.00009125 0.24525614 6.09206826e-03
272 1 0.73381575 0.00008551 0.24528617 5.94781856e-03
273 1 0.85612004 0.00008364 0.24532686 5.82025544e-03
274 1 0.97842341 0.00008182 0.24536519 5.95871849e-03
275 1 1.10072692 0.00007955 0.24541779 6.09232315e-03
276 1 1.22303436 0.00007758 0.24548388 6.09205550e-03
277 1 1.34533621 0.00007873 0.24554626 6.08598370e-03
278 1 1.46764253 0.00007593 0.24561646 6.07933546e-03
279 1 1.58995034 0.00007407 0.24570540 6.08488133e-03
280 1 1.71225313 0.00007955 0.24578968 6.08161608e-03
281 1 1.83455627 0.00007211 0.24589204 6.08881076e-03
282 1 1.95686677 0.00007182 0.24600333 6.09207793e-03
283 1 2.07916394 0.00006921 0.24611930 6.09206431e-03
284 1 2.20147225 0.00006566 0.24624451 6.09206920e-03
285 1 2.32377921 0.00006233 0.24638230 6.09206749e-03
286 1 2.44609172 0.00006308 0.24651987 6.09206826e-03
287 1 2.56840084 0.00006363 0.24666221 6.09206901e-03
288 1 2.69070668 0.00006793 0.24681622 6.08547783e-03
289 1 2.81301090 0.00007406 0.24697010 6.07797420e-03
290 1 2.93531920 0.00007039 0.24714227 6.08460882e-03
291 1 3.05762436 0.00006990 0.24731340 6.08123045e-03
292 1 3.17993301 0.00007033 0.24749142 6.08867780e-03
293 1 3.30223348 0.00007019 0.24767196 6.09206866e-03
294 1 3.42453832 0.00006382 0.24786593 6.09206839e-03
295 1 3.54684285 0.00006678 0.24805892 6.09206833e-03
296 1 3.66914930 0.00006263 0.24825606 6.09206826e-03
297 1 3.79145787 0.00005664 0.24846830 6.09206824e-03
298 1 3.91375877 0.00005736 0.24867811 6.09206825e-03
299 1 4.03606938 0.00006164 0.24889762 6.10477040e-03
300 1 4.15837220 0.00006692 0.24912534 6.10144793e-03
301 1 4.28068103 0.00007124 0.24936046 6.09206826e-03
302 1 4.40298858 0.00007472 0.24959588 6.08473760e-03
303 1 4.52529563 0.00007191 0.24982668 6.07718969e-03
304 1 4.64760415 0.00006590 0.25007275 6.08430762e-03
305 1 4.76990581 0.00006966 0.25032614 6.08084602e-03
306 1 4.89221395 0.00006732 0.25058408 6.08857506e-03
307 1 5.01451835 0.00006206 0.25085481 6.09439460e-03
308 1 5.13682382 0.00006364 0.25112606 6.09360296e-03
309 1 5.25912332 0.00007173 0.25140329 6.10212083e-03
310 1 5.38142726 0.00007484 0.25168582 6.09455787e-03
311 1 5.50373554 0.00007528 0.25197284 6.08457013e-03
312 1 5.62604238 0.00008580 0.25226527 6.08334006e-03
313 1 5.74834132 0.00008448 0.25256607 6.09025173e-03
314 1 5.87064587 0.00008380 0.25286531 6.09206826e-03
315 1 5.99295071 0.00008439 0.25317074 6.09206826e-03
316 1 6.11524813 0.00008382 0.25347784 6.08838437e-03
317 1 6.23755435 0.00008558 0.25379750 6.09329454e-03
318 1 6.35985466 0.00008196 0.25412193 6.09400483e-03
319 1 6.48215738 0.00008278 0.25444676 6.08872179e-03
320 1 6.60446097 0.00008314 0.25477253 6.08812243e-03
321 1 6.72676282 0.00008422 0.25510003 6.09206826e-03
322 1 6.84906418 0.00008163 0.25544060 6.09206826e-03
323 1 6.97136584 0.00008643 0.25578768 6.09206826e-03
324 1 7.09366531 0.00008780 0.25613761 6.06302327e-03
325 1 7.21596553 0.00008841 0.25649550 6.06302327e-03
326 1 7.33826709 0.00009198 0.25685679 5.90236529e-03
327 1 7.46057208 0.00009444 0.25722696 5.81608564e-03
328 1 7.58287855 0.00010059 0.25759361 6.10035823e-03
329 1 7.70518286 0.00010149 0.25796215 5.08741347e-03
330 1 7.82748362 0.00009473 0.25832456 6.88423117e-03
331 1 7.94977987 0.00009824 0.25870550 4.95164977e-03
332 1 8.07207686 0.00010221 0.25908717 5.63292633e-03
333 1 8.19437463 0.00010183 0.25947594 5.95654755e-03
334 1 8.31667287 0.00010209 0.25986963 6.00432988e-03
335 1 8.43897111 0.00010354 0.26026981 6.08757506e-03
336 1 8.56126987 0.00010512 0.26066855 5.05700823e-03
337 1 8.68357184 0.00010210 0.26106565 6.83715280e-03
338 1 8.80586857 0.00010656 0.26146831 4.93632937e-03
339 1 8.92816670 0.00010773 0.26188356 5.62467055e-03
340 1 9.05046322 0.00010824 0.26229626 5.95386311e-03
341 1 9.17275808 0.00011046 0.26272086 6.00199927e-03
342 1 9.29505832 0.00011035 0.26314615 6.06987486e-03
343 1 9.41735485 0.00011067 0.26357151 5.01509653e-03
344 1 9.53965237 0.00010967 0.26400249 6.78511241e-03
345 1 9.66195001 0.00010880 0.26443675 4.92113473e-03
346 1 9.78424778 0.00011122 0.26487879 5.61645056e-03
347 1 9.90654143 0.00011369 0.26532784 5.95118153e-03
348 1 10.02884160 0.00011081 0.26577403 6.09206826e-03
349 1 10.15113651 0.00011367 0.26623137 6.09206826e-03
350 1 10.27343049 0.00010955 0.26668417 6.09206826e-03
351 1 10.39573023 0.00010660 0.26714242 6.50085567e-03
352 1 10.51802549 0.00010192 0.26760470 6.38496347e-03
353 1 10.64032275 0.00010130 0.26807266 5.77251663e-03
354 1 10.76262067 0.00010252 0.26853902 5.73476969e-03
355 1 10.88491698 0.00009992 0.26900977 5.94888879e-03
356 1 11.00721232 0.00010011 0.26948562 6.09206826e-03
357 1 11.12950480 0.00010316 0.26996355 6.09206826e-03
358 1 11.25180081 0.00010402 0.27044852 6.09206826e-03
359 1 11.37409426 0.00010374 0.27093777 6.09206826e-03
360 1 11.49638860 0.00010556 0.27143089 4.98457375e-03
361 1 11.61868625 0.00009899 0.27192238 6.69756871e-03
362 1 11.74098305 0.00009729 0.27241753 5.15375987e-03
363 1 11.86327811 0.00009704 0.27291886 4.95985007e-03
364 1 11.98557282 0.00009423 0.27341912 6.48212442e-03
365 1 12.10786411 0.00009609 0.27392798 5.14927068e-03
366 1 12.23015720 0.00009875 0.27444048 4.95341033e-03
367 1 12.35245273 0.00009671 0.27495749 6.46347279e-03
368 1 12.47474482 0.00009931 0.27546946 5.14043101e-03
369 1 12.59703862 0.00009743 0.27599419 4.91020010e-03
370 1 12.71933442 0.00009781 0.27651519 6.45556760e-03
371 1 12.84162697 0.00009864 0.27704210 4.90989307e-03
372 1 12.96391934 0.00009805 0.27757265 5.52395043e-03
373 1 13.08621177 0.00009898 0.27810269 5.87068470e-03
374 1 13.20850233 0.00009746 0.27863618 4.87920209e-03
375 1 13.33079359 0.00009203 0.27917063 6.41661913e-03
376 1 13.45308376 0.00009240 0.27971113 4.89988333e-03
377 1 13.57537863 0.00009112 0.28025443 5.51681014e-03
378 1 13.69767215 0.00008963 0.28080039 5.85936171e-03
379 1 13.81996091 0.00008672 0.28134868 4.85938456e-03
380 1 13.94225354 0.00008624 0.28189707 6.38254444e-03
381 1 14.06454211 0.00008513 0.28245104 4.88995824e-03
382 1 14.18683171 0.00008602 0.28300968 5.57476230e-03
383 1 14.30912095 0.00008918 0.28356887 5.93743790e-03
384 1 14.43140768 0.00008795 0.28413508 5.98766457e-03
385 1 14.55369584 0.00008941 0.28469850 5.96043235e-03
386 1 14.67598589 0.00008915 0.28526661 4.81637844e-03
387 1 14.79827814 0.00008984 0.28584053 6.34214196e-03
388 1 14.92056741 0.00008933 0.28641017 4.87620659e-03
389 1 15.04285810 0.00008869 0.28698535 5.56677439e-03
390 1 15.16514559 0.00008519 0.28756226 5.93477518e-03
391 1 15.28743197 0.00008440 0.28814067 5.98532808e-03
392 1 15.40972108 0.00008502 0.28872407 5.94249673e-03
393 1 15.53201007 0.00008193 0.28931012 4.79106117e-03
394 1 15.65429659 0.00007918 0.28990070 6.34873408e-03
395 1 15.77658334 0.00007953 0.29049144 5.10720957e-03
396 1 15.89887307 0.00007893 0.29108574 4.79385489e-03
397 1 16.02116286 0.00007261 0.29168057 6.33054845e-03
398 1 16.14345163 0.00007359 0.29227604 5.10009402e-03
399 1 16.26573822 0.00007282 0.29287746 4.78369059e-03
400 1 16.38802595 0.00007129 0.29347687 6.31203828e-03
401 1 16.51031140 0.00007252 0.29407912 5.09300092e-03
402 1 16.63259785 0.00007363 0.29468495 4.74903927e-03
403 1 16.75488395 0.00007259 0.29529304 6.32830758e-03
404 1 16.87717036 0.00006985 0.29590331 5.08343922e-03
405 1 16.99945697 0.00006787 0.29651767 4.32591159e-03
406 1 17.12174179 0.00006344 0.29712787 6.00104739e-03
407 1 17.24402820 0.00006175 0.29774556 5.21119202e-03
408 1 17.36631142 0.00005771 0.29836430 6.09206826e-03
409 1 17.48859752 0.00005471 0.29898510 6.05153388e-03
410 1 17.61088055 0.00005445 0.29960722 5.91774538e-03
411 1 17.73316680 0.00005068 0.30023431 6.22305381e-03
412 1 17.85545198 0.00005056 0.30086495 5.03791106e-03
413 1 17.97773502 0.00004852 0.30149418 4.72607940e-03
414 1 18.10001909 0.00004590 0.30212527 8.71836332e-03
415 1 18.22230370 0.00004097 0.30275944 5.95355142e-03
416 1 18.34458691 0.00004112 0.30339642 5.36960420e-03
417 1 18.46686933 0.00003883 0.30403580 6.03255871e-03
418 1 18.58915242 0.00003745 0.30467458 5.00245570e-03
419 1 18.71143526 0.00003376 0.30531646 4.70280803e-03
420 1 18.83371869 0.00003314 0.30596067 8.65685956e-03
421 1 18.95600101 0.00003259 0.30661031 5.94692135e-03
422 1 19.07828382 0.00002813 0.30725871 5.65886656e-03
423 1 19.20056805 0.00002484 0.30790854 5.98663784e-03
424 1 19.32284976 0.00002306 0.30856118 6.03862808e-03
425 1 19.44513078 0.00002066 0.30921331 6.08821513e-03
426 1 19.56741351 0.00001815 0.30986714 6.17296108e-03
427 1 19.68969578 0.00001484 0.31052296 6.04911048e-03
428 1 19.81197776 0.00001395 0.31117995 6.99423467e-03
429 1 19.93425979 0.00001269 0.31183871 6.49916941e-03
430 1 20.05654087 0.00001033 0.31250172 6.05139015e-03
431 1 20.17882075 0.00000905 0.31316593 6.07023001e-03
432 1 20.30110183 0.00000600 0.31382815 6.06423220e-03
433 1 20.42338292 0.00000354 0.31449348 6.03339671e-03
434 1 20.54566353 0.00000102 0.31515935 6.06123277e-03
435 1 20.66794354 -0.00000004 0.31582581 6.05523286e-03
436 1 20.79022364 -0.00000313 0.31649450 6.01539697e-03
437 1 20.91250415 -0.00000639 0.31716560 6.05223237e-03
438 1 21.03478484 -0.00000944 0.31783736 6.04623034e-03
439 1 21.15706292 -0.00001080 0.31851054 5.99739088e-03
440 1 21.27934232 -0.00001396 0.31918511 6.03386113e-03
441 1 21.40162142 -0.00001627 0.31986066 6.06015229e-03
442 1 21.52389974 -0.00001879 0.32053738 6.93292310e-03
443 1 21.64617783 -0.00002263 0.32121466 6.60839364e-03
444 1 21.76845599 -0.00002565 0.32189476 6.08325267e-03
445 1 21.89073432 -0.00002793 0.32257416 5.98999100e-03
446 1 22.01301289 -0.00003051 0.32325583 6.02220795e-03
447 1 22.13529117 -0.00003290 0.32393856 5.94934321e-03
448 1 22.25756962 -0.00003653 0.32462268 6.00521256e-03
449 1 22.37984802 -0.00003821 0.32530796 5.96042100e-03
450 1 22.50212518 -0.00004096 0.32599424 6.01327673e-03
451 1 22.62440298 -0.00004253 0.32668092 6.06616825e-03
452 1 22.74668044 -0.00004541 0.32736798 6.09206826e-03
453 1 22.86895746 -0.00004815 0.32805533 6.22108889e-03
454 1 22.99123451 -0.00005086 0.32874382 6.93510095e-03
455 1 23.11351079 -0.00005339 0.32943330 6.55067958e-03
456 1 23.23578676 -0.00005573 0.33012427 5.44215936e-03
457 1 23.35806331 -0.00005889 0.33081435 5.52453627e-03
458 1 23.48033993 -0.00006165 0.33150509 6.09206826e-03
459 1 23.60261592 -0.00006433 0.33219752 5.52769247e-03
460 1 23.72489137 -0.00006653 0.33289036 5.54504444e-03
461 1 23.84716718 -0.00006881 0.33358380 6.09206826e-03
462 1 23.96944222 -0.00007169 0.33427838 5.52433613e-03
463 1 24.09171808 -0.00007413 0.33497289 5.54169116e-03
464 1 24.21399302 -0.00007576 0.33566770 6.09959331e-03
465 1 24.33626810 -0.00007855 0.33636332 5.37708140e-03
466 1 24.45854325 -0.00008094 0.33705892 5.50601994e-03
467 1 24.58081814 -0.00008336 0.33775497 6.09132348e-03
468 1 24.70309250 -0.00008580 0.33845172 5.36406280e-03
469 1 24.82536684 -0.00008830 0.33914858 5.50114066e-03
470 1 24.94764091 -0.00009069 0.33984556 6.07613573e-03
471 1 25.06991510 -0.00009337 0.34054294 5.86576563e-03
472 1 25.19218873 -0.00009573 0.34124059 5.87763704e-03
473 1 25.31446235 -0.00009832 0.34193843 5.79509293e-03
474 1 25.43673593 -0.00010085 0.34263628 6.45795830e-03
475 1 25.55900926 -0.00010334 0.34333422 6.36067877e-03
476 1 25.68128234 -0.00010579 0.34403226 5.01672083e-03
477 1 0.12232298 1.20993837 -0.24469510 -5.06599779e-03
478 1 0.24463569 1.20989470 -0.24467581 -5.96099493e-03
479 1 0.36695506 1.20985451 -0.24465726 -6.06828787e-03
480 1 0.48928667 1.20984609 -0.24464282 -6.09081051e-03
481 1 0.61161899 1.20983866 -0.24461413 -6.09597885e-03
482 1 0.73395164 1.20983993 -0.24458299 -6.09677124e-03
483 1 0.85629194 1.20983171 -0.24454285 -6.09261604e-03
484 1 0.97862584 1.20983615 -0.24449725 -6.09210769e-03
485 1 1.10096862 1.20982805 -0.24443851 -6.09159289e-03
486 1 1.22330160 1.20982543 -0.24437584 -6.09258964e-03
487 1 1.34563914 1.20983921 -0.24431273 -6.11404233e-03
488 1 1.46797325 1.20984280 -0.24423427 -6.12924398e-03
489 1 1.59030632 1.20983413 -0.24414502 -6.13810471e-03
490 1 1.71264255 1.20983517 -0.24404739 -6.10740278e-03
491 1 1.83497924 1.20983175 -0.24394352 -6.11299929e-03
492 1 1.95731745 1.20983724 -0.24382927 -6.11651709e-03
493 1 2.07965009 1.20983386 -0.24371501 -6.10892752e-03
494 1 2.20198381 1.20984547 -0.24359254 -6.08383817e-03
495 1 2.32432605 1.20984602 -0.24345536 -6.07811671e-03
496 1 2.44665868 1.20984396 -0.24331338 -6.12167487e-03
497 1 2.56898462 1.20983757 -0.24317273 -6.12891596e-03
498 1 2.69131852 1.20984465 -0.24302275 -6.13439434e-03
499 1 2.81365835 1.20985053 -0.24286454 -6.11877956e-03
500 1 2.93599008 1.20984212 -0.24269316 -6.09486572e-03
501 1 3.05832075 1.20984808 -0.24251900 -6.09206826e-03
502 1 3.18066070 1.20984734 -0.24233866 -6.09206855e-03
503 1 3.30298817 1.20985101 -0.24215139 -6.09206932e-03
504 1 3.42531561 1.20984891 -0.24195267 -6.11378764e-03
505 1 3.54765381 1.20986044 -0.24175216 -6.10132488e-03
506 1 3.66997566 1.20986620 -0.24154525 -6.14015253e-03
507 1 3.79230441 1.20986104 -0.24133939 -6.18862768e-03
508 1 3.91462924 1.20986961 -0.24111558 -6.20494803e-03
509 1 4.03695369 1.20987084 -0.24089503 -6.16689241e-03
510 1 4.15927821 1.20987171 -0.24066394 -6.13536340e-03
511 1 4.28160453 1.20986549 -0.24043282 -6.09206826e-03
512 1 4.40393141 1.20986261 -0.24019427 -6.09528258e-03
513 1 4.52625964 1.20986990 -0.23995229 -6.10197805e-03
514 1 4.64858691 1.20986902 -0.23970096 -6.09705471e-03
515 1 4.77091103 1.20987793 -0.23944488 -6.06436498e-03
516 1 4.89324613 1.20987743 -0.23918180 -6.12133674e-03
517 1 5.01556827 1.20988610 -0.23891882 -6.20974613e-03
518 1 5.13789256 1.20989466 -0.23864861 -6.24802334e-03
519 1 5.26021494 1.20989914 -0.23837124 -6.19819175e-03
520 1 5.38254218 1.20989374 -0.23809270 -6.15088270e-03
521 1 5.50487016 1.20990313 -0.23780709 -6.13301438e-03
522 1 5.62719467 1.20991425 -0.23751300 -6.10131989e-03
523 1 5.74952157 1.20991448 -0.23721410 -6.05757291e-03
524 1 5.87184525 1.20992322 -0.23691152 -6.04491082e-03
525 1 5.99416610 1.20992103 -0.23660007 -6.05437557e-03
526 1 6.11649129 1.20993045 -0.23628682 -6.06489385e-03
527 1 6.23881228 1.20993661 -0.23596654 -6.09206826e-03
528 1 6.36113250 1.20994399 -0.23564155 -6.09206826e-03
529 1 6.48345843 1.20993916 -0.23531944 -6.09979510e-03
530 1 6.60577975 1.20994372 -0.23498720 -6.12512692e-03
531 1 6.72810098 1.20995039 -0.23465177 -6.16578501e-03
532 1 6.85042082 1.20994730 -0.23430620 -6.26929389e-03
533 1 6.97273296 1.20995227 -0.23395783 -6.28695529e-03
534 1 7.09505493 1.20996187 -0.23360981 -6.28583704e-03
535 1 7.21737239 1.20996195 -0.23325395 -6.23881179e-03
536 1 7.33969241 1.20996538 -0.23289343 -6.30184580e-03