ITEM: TIMESTEP
0
ITEM: NUMBER OF ATOMS
10710
ITEM: BOX BOUNDS ff ff ff
-2.0 27.74420203871364
-2.0040824388442924 3.210857947318352
-2.2448893209272063 4.215533216850181
ITEM: ATOMS id type x y z q
1 2 0.00000000 0.00000000 0.24527477 3.35542180e-03
2 2 0.00000000 0.00000000 -0.24472523 -3.35542180e-03
3 2 0.00000000 1.21000000 0.24527477 3.41686920e-03
4 2 0.00000000 1.21000000 -0.24472523 -3.41686920e-03
5 1 25.68921348 -0.00408244 2.20778868 3.37776783e-03
6 1 25.74420204 -0.00092514 1.72089232 -3.37776783e-03
7 1 25.68867904 1.20590608 2.21553322 3.41686920e-03
8 1 25.74366938 1.20903015 1.72863725 -3.41686920e-03
9 2 0.00000000 0.00000000 -0.12222523 0.00000000e+00
10 2 0.00000000 0.00000000 0.00027477 0.00000000e+00
11 2 0.00000000 0.00000000 0.12277477 0.00000000e+00
12 2 0.00000000 0.12100000 0.24527477 5.18139194e-03
13 2 0.00000000 0.24200000 0.24527477 5.50362000e-03
14 2 0.00000000 0.36300000 0.24527477 5.01501884e-03
15 2 0.00000000 0.48400000 0.24527477 5.50904170e-03
16 2 0.00000000 0.60500000 0.24527477 6.02408537e-03
17 2 0.00000000 0.72600000 0.24527477 6.86123120e-03
18 2 0.00000000 0.84700000 0.24527477 6.83241897e-03
19 2 0.00000000 0.96800000 0.24527477 5.84994208e-03
20 2 0.00000000 1.08900000 0.24527477 4.96878236e-03
21 2 0.00000000 1.21000000 -0.12222523 0.00000000e+00
22 2 0.00000000 1.21000000 0.00027477 0.00000000e+00
23 2 0.00000000 1.21000000 0.12277477 0.00000000e+00
24 2 0.00000000 0.12100000 -0.24472523 -5.18139194e-03
25 2 0.00000000 0.24200000 -0.24472523 -5.50362000e-03
26 2 0.00000000 0.36300000 -0.24472523 -5.01501884e-03
27 2 0.00000000 0.48400000 -0.24472523 -5.50904170e-03
28 2 0.00000000 0.60500000 -0.24472523 -6.02408537e-03
29 2 0.00000000 0.72600000 -0.24472523 -6.86123120e-03
30 2 0.00000000 0.84700000 -0.24472523 -6.83241897e-03
31 2 0.00000000 0.96800000 -0.24472523 -5.84994208e-03
32 2 0.00000000 1.08900000 -0.24472523 -4.96878236e-03
33 1 25.73045351 -0.00171524 1.84261535 0.00000000e+00
34 1 25.71670721 -0.00250412 1.96433896 0.00000000e+00
35 1 25.70296107 -0.00329286 2.08606357 0.00000000e+00
36 1 25.68916147 0.11691488 2.20856700 5.05002864e-03
37 1 25.68910683 0.23791408 2.20934502 5.64089052e-03
38 1 25.68905323 0.35891253 2.21012306 5.44128437e-03
39 1 25.68900015 0.47991202 2.21089849 6.40224548e-03
40 1 25.68894777 0.60091184 2.21167533 6.88148315e-03
41 1 25.68889397 0.72191102 2.21244903 6.11583422e-03
42 1 25.68884045 0.84291009 2.21322114 5.69198232e-03
43 1 25.68878706 0.96390851 2.21399249 6.01735171e-03
44 1 25.68873369 1.08490807 2.21476346 5.43527194e-03
45 1 25.72992095 1.20824963 1.85035987 0.00000000e+00
46 1 25.71617441 1.20746799 1.97208417 0.00000000e+00
47 1 25.70242811 1.20668668 2.09380830 0.00000000e+00
48 1 25.74414732 0.12007042 1.72167040 -5.05002864e-03
49 1 25.74409497 0.24106606 1.72244861 -5.64089052e-03
50 1 25.74404095 0.36206259 1.72322663 -5.44128437e-03
51 1 25.74398797 0.48305783 1.72400291 -6.40224548e-03
52 1 25.74393522 0.60405280 1.72477804 -6.88148315e-03
53 1 25.74388271 0.72504761 1.72555140 -6.11583422e-03
54 1 25.74382885 0.84604244 1.72632400 -5.69198232e-03
55 1 25.74377556 0.96703833 1.72709525 -6.01735171e-03
56 1 25.74372084 1.08803440 1.72786617 -5.43527194e-03
57 1 0.12248097 0.00042156 -0.24488932 -4.80862070e-03
58 1 0.24501248 0.00075618 -0.24480160 -5.62714142e-03
59 1 0.36755588 0.00081724 -0.24463873 -6.00619986e-03
60 1 0.49019031 0.00081692 -0.24435421 -6.09052560e-03
61 1 0.61276498 0.00084027 -0.24390026 -6.09206826e-03
62 1 0.73536801 0.00099084 -0.24331000 -5.94781856e-03
63 1 0.85794929 0.00114827 -0.24261455 -5.82025544e-03
64 1 0.98052040 0.00104740 -0.24146911 -5.95871849e-03
65 1 1.10325213 0.00107656 -0.24039859 -6.09232315e-03
66 1 1.22588824 0.00101110 -0.23921236 -6.09205550e-03
67 1 1.34846305 0.00105808 -0.23778322 -6.08598370e-03
68 1 1.47108075 0.00118657 -0.23604297 -6.07933546e-03
69 1 1.59365130 0.00120381 -0.23442577 -6.08488133e-03
70 1 1.71622760 0.00118635 -0.23253234 -6.08161608e-03
71 1 1.83877435 0.00118622 -0.23050482 -6.08881076e-03
72 1 1.96148659 0.00114573 -0.22829205 -6.09207793e-03
73 1 2.08410765 0.00117531 -0.22599505 -6.09206431e-03
74 1 2.20672873 0.00129151 -0.22342544 -6.09206920e-03
75 1 2.32932566 0.00127282 -0.22080054 -6.09206749e-03
76 1 2.45185679 0.00122723 -0.21803156 -6.09206826e-03
77 1 2.57436100 0.00122052 -0.21514925 -6.09206901e-03
78 1 2.69694062 0.00108317 -0.21216241 -6.08547783e-03
79 1 2.81947255 0.00113240 -0.20902997 -6.07797420e-03
80 1 2.94199849 0.00129232 -0.20575675 -6.08460882e-03
81 1 3.06452573 0.00120512 -0.20235956 -6.08123045e-03
82 1 3.18701776 0.00123896 -0.19879277 -6.08867780e-03
83 1 3.30948874 0.00126234 -0.19509525 -6.09206866e-03
84 1 3.43202433 0.00127719 -0.19125546 -6.09206839e-03
85 1 3.55448262 0.00119400 -0.18737045 -6.09206833e-03
86 1 3.67699553 0.00112283 -0.18329840 -6.09206826e-03
87 1 3.79954216 0.00123504 -0.17913339 -6.09206824e-03
88 1 3.92200627 0.00126444 -0.17489686 -6.09206825e-03
89 1 4.04449188 0.00115938 -0.17057816 -6.10477040e-03
90 1 4.16696756 0.00125944 -0.16612321 -6.10144793e-03
91 1 4.28936179 0.00125330 -0.16150653 -6.09206826e-03
92 1 4.41186224 0.00122010 -0.15686879 -6.08473760e-03
93 1 4.53424235 0.00120652 -0.15208214 -6.07718969e-03
94 1 4.65667247 0.00125621 -0.14714457 -6.08430762e-03
95 1 4.77907838 0.00130472 -0.14215579 -6.08084602e-03
96 1 4.90152369 0.00126955 -0.13710529 -6.08857506e-03
97 1 5.02398320 0.00136951 -0.13188384 -6.09439460e-03
98 1 5.14642080 0.00128583 -0.12654811 -6.09360296e-03
99 1 5.26881990 0.00131257 -0.12102441 -6.10212083e-03
100 1 5.39125432 0.00126753 -0.11550084 -6.09455787e-03
101 1 5.51360175 0.00137441 -0.10988047 -6.08457013e-03
102 1 5.63596143 0.00135064 -0.10412138 -6.08334006e-03
103 1 5.75844562 0.00132568 -0.09820784 -6.09025173e-03
104 1 5.88076153 0.00133028 -0.09224289 -6.09206826e-03
105 1 6.00311799 0.00132964 -0.08620303 -6.09206826e-03
106 1 6.12546892 0.00141539 -0.08003356 -6.08838437e-03
107 1 6.24777463 0.00141650 -0.07377711 -6.09329454e-03
108 1 6.37018221 0.00132910 -0.06745931 -6.09400483e-03
109 1 6.49253412 0.00138742 -0.06101048 -6.08872179e-03
110 1 6.61492465 0.00144334 -0.05439795 -6.08812243e-03
111 1 6.73719209 0.00145461 -0.04772569 -6.09206826e-03
112 1 6.85953169 0.00144800 -0.04103743 -6.09206826e-03
113 1 6.98179459 0.00143809 -0.03424400 -6.09206826e-03
114 1 7.10404738 0.00148062 -0.02725480 -6.06302327e-03
115 1 7.22635123 0.00138643 -0.02022786 -6.06302327e-03
116 1 7.34867728 0.00139847 -0.01307927 -5.90236529e-03
117 1 7.47094332 0.00141699 -0.00583291 -5.81608564e-03
118 1 7.59319143 0.00142471 0.00145563 -6.10035823e-03
119 1 7.71547412 0.00141833 0.00884338 -5.08741334e-03
120 1 7.83769940 0.00141148 0.01631402 -6.87719096e-03
121 1 7.95989520 0.00144994 0.02386249 -5.18694999e-03
122 1 8.08219879 0.00137816 0.03144005 -5.00655937e-03
123 1 8.20439530 0.00140367 0.03917317 -7.17602109e-03
124 1 8.32661755 0.00147074 0.04695897 -5.64123658e-03
125 1 8.44890493 0.00149070 0.05482119 -5.91249038e-03
126 1 8.57107064 0.00145265 0.06276373 -5.77202514e-03
127 1 8.69324795 0.00146282 0.07077628 -5.95689302e-03
128 1 8.81548869 0.00150104 0.07885725 -6.09206826e-03
129 1 8.93769543 0.00142618 0.08705560 -6.09206826e-03
130 1 9.05986722 0.00142936 0.09530512 -6.09206826e-03
131 1 9.18202862 0.00145606 0.10361251 -6.00199927e-03
132 1 9.30424028 0.00156316 0.11199267 -6.06987486e-03
133 1 9.42643294 0.00157127 0.12047801 -5.02835518e-03
134 1 9.54858667 0.00155801 0.12903569 -6.79157831e-03
135 1 9.67069773 0.00162860 0.13772532 -4.92113473e-03
136 1 9.79288221 0.00156696 0.14643334 -5.56259368e-03
137 1 9.91506554 0.00151509 0.15526021 -5.94323360e-03
138 1 10.03723466 0.00157958 0.16420854 -5.00637084e-03
139 1 10.15930720 0.00153554 0.17314311 -6.75640181e-03
140 1 10.28140387 0.00147151 0.18217576 -4.91035923e-03
141 1 10.40348552 0.00146333 0.19130422 -5.75765677e-03
142 1 10.52559364 0.00146956 0.20044098 -6.37465021e-03
143 1 10.64769154 0.00152181 0.20963785 -6.33172667e-03
144 1 10.76975912 0.00154013 0.21891535 -5.77695765e-03
145 1 10.89187326 0.00160273 0.22824809 -5.75602868e-03
146 1 11.01394486 0.00157324 0.23763112 -5.94989338e-03
147 1 11.13597709 0.00154504 0.24717212 -6.09206826e-03
148 1 11.25805394 0.00161357 0.25675024 -6.09206826e-03
149 1 11.38012046 0.00156092 0.26640913 -6.49862787e-03
150 1 11.50219499 0.00159403 0.27615787 -6.47806478e-03
151 1 11.62424511 0.00153199 0.28591698 -5.98398651e-03
152 1 11.74631770 0.00157549 0.29578575 -5.97118729e-03
153 1 11.86833588 0.00152377 0.30568175 -6.32827249e-03
154 1 11.99036051 0.00152796 0.31561856 -6.38296841e-03
155 1 12.11239416 0.00160646 0.32561947 -6.09206826e-03
156 1 12.23440751 0.00153611 0.33574243 -5.92176613e-03
157 1 12.35639450 0.00155466 0.34588117 -5.84196899e-03
158 1 12.47833792 0.00153834 0.35608395 -5.89327746e-03
159 1 12.60036210 0.00155813 0.36639616 -4.96011300e-03
160 1 12.72233059 0.00156210 0.37671702 -6.65158567e-03
161 1 12.84429572 0.00155813 0.38713353 -4.90989307e-03
162 1 12.96631331 0.00154761 0.39755681 -5.52395043e-03
163 1 13.08828402 0.00159117 0.40807587 -5.87068470e-03
164 1 13.21023872 0.00158419 0.41863258 -4.88602194e-03
165 1 13.33217443 0.00159919 0.42925854 -6.40279006e-03
166 1 13.45411551 0.00158314 0.43992018 -5.12407601e-03
167 1 13.57604898 0.00155964 0.45066201 -4.88216806e-03
168 1 13.69797776 0.00154664 0.46143336 -6.38017819e-03
169 1 13.81989540 0.00159985 0.47227251 -5.11373203e-03
170 1 13.94180964 0.00156931 0.48317180 -4.85398664e-03
171 1 14.06373761 0.00155660 0.49411790 -6.35577596e-03
172 1 14.18561582 0.00159504 0.50514303 -5.10698016e-03
173 1 14.30753727 0.00153879 0.51617589 -4.85870271e-03
174 1 14.42942308 0.00154093 0.52732879 -6.37702085e-03
175 1 14.55131289 0.00148896 0.53846314 -5.10092274e-03
176 1 14.67319083 0.00150898 0.54966594 -4.84968636e-03
177 1 14.79504853 0.00152299 0.56093271 -6.37599125e-03
178 1 14.91693726 0.00151883 0.57223493 -4.87710407e-03
179 1 15.03882349 0.00152097 0.58360527 -5.56677439e-03
180 1 15.16069949 0.00146846 0.59499998 -5.93477518e-03
181 1 15.28256203 0.00150020 0.60646673 -6.09206826e-03
182 1 15.40442185 0.00147104 0.61796734 -6.09206826e-03
183 1 15.52626301 0.00148519 0.62951722 -5.98211588e-03
184 1 15.64808700 0.00146740 0.64112269 -5.88223740e-03
185 1 15.76992848 0.00147274 0.65279967 -5.93479953e-03
186 1 15.89176991 0.00139122 0.66451906 -4.77734034e-03
187 1 16.01357009 0.00139148 0.67626972 -6.31776323e-03
188 1 16.13538407 0.00140987 0.68805136 -4.85845554e-03
189 1 16.25721547 0.00141193 0.69990547 -5.48045656e-03
190 1 16.37902082 0.00138283 0.71179445 -5.74774533e-03
191 1 16.50079414 0.00134684 0.72374057 -5.91938606e-03
192 1 16.62260773 0.00131399 0.73575859 -4.72601755e-03
193 1 16.74440756 0.00132180 0.74779591 -6.44309587e-03
194 1 16.86616194 0.00130524 0.75986046 -5.21392668e-03
195 1 16.98793494 0.00128282 0.77193938 -4.32492230e-03
196 1 17.10971566 0.00126474 0.78408428 -6.11554878e-03
197 1 17.23146803 0.00124594 0.79629105 -5.20526136e-03
198 1 17.35326560 0.00123696 0.80852781 -4.31230685e-03
199 1 17.47499821 0.00121991 0.82077907 -6.11716232e-03
200 1 17.59672934 0.00123984 0.83311533 -5.69773107e-03
201 1 17.71848395 0.00118021 0.84546587 -5.99314584e-03
202 1 17.84023977 0.00118395 0.85786635 -4.76350900e-03
203 1 17.96196475 0.00114445 0.87033637 -5.21120302e-03
204 1 18.08370473 0.00112923 0.88279768 -6.01204532e-03
205 1 18.20540846 0.00109889 0.89530314 -5.73233737e-03
206 1 18.32714235 0.00104808 0.90785657 -5.81943467e-03
207 1 18.44883355 0.00104395 0.92044901 -6.32655047e-03
208 1 18.57057351 0.00101004 0.93308066 -5.03614005e-03
209 1 18.69226784 0.00098451 0.94571099 -4.70280803e-03
210 1 18.81394854 0.00095944 0.95842229 -8.65683464e-03
211 1 18.93565111 0.00095773 0.97114054 -5.94692004e-03
212 1 19.05731802 0.00092739 0.98392789 -5.65885778e-03
213 1 19.17902682 0.00089929 0.99670421 -5.99277035e-03
214 1 19.30069692 0.00084938 1.00954806 -6.04066598e-03
215 1 19.42235301 0.00080789 1.02240395 -6.09206826e-03
216 1 19.54404716 0.00082848 1.03531374 -6.09206826e-03
217 1 19.66569050 0.00080305 1.04823304 -6.09206826e-03
218 1 19.78736044 0.00074507 1.06117576 -5.94140402e-03
219 1 19.90901049 0.00070448 1.07415420 -6.09135703e-03
220 1 20.03065673 0.00068648 1.08716337 -6.09135703e-03
221 1 20.15231933 0.00065912 1.10019870 -6.09206826e-03
222 1 20.27396004 0.00062709 1.11326177 -6.22362401e-03
223 1 20.39557888 0.00062328 1.12635677 -6.30618064e-03
224 1 20.51721987 0.00057676 1.13947193 -6.16079228e-03
225 1 20.63884925 0.00053290 1.15260545 -6.90076158e-03
226 1 20.76046550 0.00050689 1.16576892 -7.19612184e-03
227 1 20.88209534 0.00047865 1.17895320 -6.17999120e-03
228 1 21.00371490 0.00046370 1.19216884 -5.85545161e-03
229 1 21.12532557 0.00042857 1.20540401 -6.04373412e-03
230 1 21.24694554 0.00041395 1.21867855 -6.05837687e-03
231 1 21.36856026 0.00036753 1.23196847 -6.22625934e-03
232 1 21.49015321 0.00032448 1.24527805 -6.96326852e-03
233 1 21.61176225 0.00029316 1.25860145 -6.60839364e-03
234 1 21.73334668 0.00027043 1.27196836 -6.08325267e-03
235 1 21.85493047 0.00023479 1.28536240 -5.98999100e-03
236 1 21.97652193 0.00020966 1.29876154 -6.02220795e-03
237 1 22.09810629 0.00015962 1.31218682 -5.94934321e-03
238 1 22.21968526 0.00012127 1.32562879 -6.23085673e-03
239 1 22.34124956 0.00009023 1.33908315 -5.91383044e-03
240 1 22.46283371 0.00006508 1.35255745 -5.82022831e-03
241 1 22.58439758 0.00002161 1.36604363 -6.06616825e-03
242 1 22.70597108 -0.00002983 1.37956265 -6.09206826e-03
243 1 22.82752292 -0.00005906 1.39308949 -6.22108889e-03
244 1 22.94908158 -0.00007222 1.40662312 -6.93510095e-03
245 1 23.07063171 -0.00010593 1.42018470 -6.55067958e-03
246 1 23.19219485 -0.00014947 1.43374614 -5.44215936e-03
247 1 23.31373391 -0.00017875 1.44732678 -5.52453627e-03
248 1 23.43528730 -0.00020290 1.46092305 -6.11677386e-03
249 1 23.55682121 -0.00024288 1.47452750 -5.40422112e-03
250 1 23.67836701 -0.00029031 1.48814966 -5.51625079e-03
251 1 23.79990904 -0.00032935 1.50178601 -6.10817079e-03
252 1 23.92144378 -0.00036859 1.51543155 -5.39058303e-03
253 1 24.04297529 -0.00040246 1.52908709 -5.51111698e-03
254 1 24.16451064 -0.00044695 1.54274795 -6.09959331e-03
255 1 24.28603631 -0.00048605 1.55641606 -5.37708140e-03
256 1 24.40756287 -0.00050921 1.57009701 -5.50601994e-03
257 1 24.52908582 -0.00054969 1.58377746 -6.09132348e-03
258 1 24.65060650 -0.00059194 1.59746983 -5.36406280e-03
259 1 24.77212518 -0.00062610 1.61117155 -5.50114066e-03
260 1 24.89363739 -0.00066485 1.62487601 -6.07613573e-03
261 1 25.01515227 -0.00070138 1.63858469 -5.86576563e-03
262 1 25.13666412 -0.00074219 1.65229655 -5.87763703e-03
263 1 25.25817743 -0.00077888 1.66601101 -5.79509293e-03
264 1 25.37968501 -0.00081582 1.67972923 -6.45795830e-03
265 1 25.50119327 -0.00085417 1.69344917 -6.36067877e-03
266 1 25.62269837 -0.00089095 1.70716956 -5.01672083e-03
267 1 0.12215478 -0.00027406 0.24506217 4.80862070e-03
268 1 0.24427047 -0.00052528 0.24505458 5.62714142e-03
269 1 0.36637620 -0.00052696 0.24515625 6.00619986e-03
270 1 0.48845443 -0.00056443 0.24558442 6.09052560e-03
271 1 0.61038643 -0.00074758 0.24604752 6.09206826e-03
272 1 0.73246235 -0.00084527 0.24661609 5.94781856e-03
273 1 0.85451920 -0.00088409 0.24745474 5.82025544e-03
274 1 0.97644927 -0.00074096 0.24833223 5.95871849e-03
275 1 1.09840056 -0.00074128 0.24946713 6.09232315e-03
276 1 1.22042952 -0.00078660 0.25082502 6.09205550e-03
277 1 1.34242908 -0.00071760 0.25216147 6.08598370e-03
278 1 1.46448434 -0.00079942 0.25365410 6.07933546e-03
279 1 1.58655383 -0.00084953 0.25541363 6.08488133e-03
280 1 1.70845508 -0.00084929 0.25725332 6.08161608e-03
281 1 1.83048407 -0.00093252 0.25932204 6.08881076e-03
282 1 1.95256414 -0.00099199 0.26151433 6.09207793e-03
283 1 2.07438637 -0.00094198 0.26377671 6.09206431e-03
284 1 2.19646946 -0.00081976 0.26622062 6.09206920e-03
285 1 2.31849377 -0.00087096 0.26890264 6.09206749e-03
286 1 2.44055176 -0.00086410 0.27170500 6.09206826e-03
287 1 2.56259055 -0.00083698 0.27452935 6.09206901e-03
288 1 2.68467215 -0.00090375 0.27763574 6.08547783e-03
289 1 2.80663743 -0.00088419 0.28071893 6.07797420e-03
290 1 2.92864216 -0.00085527 0.28401490 6.08460882e-03
291 1 3.05068985 -0.00078033 0.28739190 6.08123045e-03
292 1 3.17275028 -0.00076680 0.29098499 6.08867780e-03
293 1 3.29468866 -0.00079123 0.29459879 6.09206866e-03
294 1 3.41669850 -0.00088516 0.29835266 6.09206839e-03
295 1 3.53871012 -0.00080354 0.30227730 6.09206833e-03
296 1 3.66073604 -0.00082916 0.30631263 6.09206826e-03
297 1 3.78281308 -0.00086144 0.31045913 6.09206824e-03
298 1 3.90477423 -0.00090970 0.31468106 6.09206825e-03
299 1 4.02678678 -0.00089894 0.31906014 6.10477040e-03
300 1 4.14873059 -0.00084157 0.32350230 6.10144793e-03
301 1 4.27080661 -0.00083202 0.32806539 6.09206826e-03
302 1 4.39285474 -0.00082679 0.33273274 6.08473760e-03
303 1 4.51488778 -0.00091423 0.33740595 6.07718969e-03
304 1 4.63693626 -0.00102110 0.34226335 6.08430762e-03
305 1 4.75891926 -0.00085588 0.34728190 6.08084602e-03
306 1 4.88089980 -0.00089351 0.35237433 6.08857506e-03
307 1 5.00288130 -0.00096164 0.35761623 6.09439460e-03
308 1 5.12487862 -0.00100751 0.36295085 6.09360296e-03
309 1 5.24683552 -0.00088237 0.36832961 6.10212083e-03
310 1 5.36875662 -0.00093279 0.37386498 6.09455787e-03
311 1 5.49075919 -0.00094445 0.37950176 6.08457013e-03
312 1 5.61275971 -0.00091600 0.38523550 6.08334006e-03
313 1 5.73470042 -0.00092247 0.39105103 6.09025173e-03
314 1 5.85668029 -0.00098273 0.39698271 6.09206826e-03
315 1 5.97872114 -0.00101731 0.40303671 6.09206826e-03
316 1 6.10066431 -0.00100171 0.40915745 6.08838437e-03
317 1 6.22259696 -0.00094214 0.41546179 6.09329454e-03
318 1 6.34448702 -0.00109614 0.42183692 6.09400483e-03
319 1 6.46647273 -0.00109910 0.42825371 6.08872179e-03
320 1 6.58846160 -0.00109051 0.43475166 6.08812243e-03
321 1 6.71036265 -0.00104567 0.44130799 6.09206826e-03
322 1 6.83231206 -0.00107029 0.44806791 6.09206826e-03
323 1 6.95427318 -0.00100976 0.45494264 6.09206826e-03
324 1 7.07616530 -0.00103825 0.46186859 6.06302327e-03
325 1 7.19807221 -0.00100724 0.46889282 6.06302327e-03
326 1 7.31997571 -0.00100994 0.47598952 5.90236529e-03
327 1 7.44193125 -0.00098494 0.48320831 5.81608564e-03
328 1 7.56388713 -0.00092696 0.49050043 6.10035823e-03
329 1 7.68577147 -0.00099769 0.49788810 5.08741347e-03
330 1 7.80776652 -0.00102400 0.50526733 6.88423117e-03
331 1 7.92966007 -0.00098620 0.51285832 4.95164977e-03
332 1 8.05149248 -0.00098337 0.52040413 5.63292633e-03
333 1 8.17340694 -0.00103118 0.52811326 5.95654755e-03
334 1 8.29532481 -0.00103969 0.53587275 6.00432988e-03
335 1 8.41722626 -0.00101081 0.54370815 6.08757506e-03
336 1 8.53912000 -0.00101022 0.55164467 5.05700823e-03
337 1 8.66103065 -0.00107676 0.55961626 6.83715280e-03
338 1 8.78290647 -0.00103964 0.56765419 4.93632937e-03
339 1 8.90482653 -0.00109811 0.57584535 5.62467055e-03
340 1 9.02667725 -0.00115656 0.58405688 5.95386311e-03
341 1 9.14850310 -0.00114960 0.59238789 6.00199927e-03
342 1 9.27040666 -0.00116191 0.60078771 6.06987486e-03
343 1 9.39219406 -0.00118785 0.60925511 5.01509653e-03
344 1 9.51409826 -0.00116536 0.61776296 6.78511241e-03
345 1 9.63594171 -0.00120159 0.62637917 4.92113473e-03
346 1 9.75779759 -0.00123120 0.63513086 5.61645056e-03
347 1 9.87960543 -0.00117870 0.64394226 5.95118153e-03
348 1 10.00144370 -0.00121223 0.65278467 6.09206826e-03
349 1 10.12323942 -0.00119734 0.66177083 6.09206826e-03
350 1 10.24506827 -0.00122018 0.67075245 6.09206826e-03
351 1 10.36693731 -0.00120559 0.67983634 6.50085567e-03
352 1 10.48877128 -0.00121801 0.68895819 6.38496347e-03
353 1 10.61063424 -0.00123552 0.69814576 5.77251663e-03
354 1 10.73241759 -0.00125738 0.70741151 5.73476969e-03
355 1 10.85426676 -0.00128190 0.71673896 5.94888879e-03
356 1 10.97607741 -0.00136408 0.72613280 6.09206826e-03
357 1 11.09785851 -0.00131398 0.73559946 6.09206826e-03
358 1 11.21966815 -0.00134357 0.74516352 6.09206826e-03
359 1 11.34144292 -0.00139300 0.75478049 6.09206826e-03
360 1 11.46317177 -0.00136323 0.76451648 4.98457375e-03
361 1 11.58499659 -0.00134843 0.77427845 6.69756871e-03
362 1 11.70680714 -0.00133068 0.78410475 5.15375987e-03
363 1 11.82854265 -0.00135018 0.79397208 4.95985007e-03
364 1 11.95030373 -0.00136856 0.80388966 6.48212442e-03
365 1 12.07210583 -0.00140412 0.81392623 5.14927068e-03
366 1 12.19385954 -0.00137434 0.82398202 4.95341033e-03
367 1 12.31561179 -0.00146424 0.83414481 6.46347279e-03
368 1 12.43733824 -0.00139200 0.84430916 5.14043101e-03
369 1 12.55905863 -0.00145613 0.85458711 4.91020010e-03
370 1 12.68085463 -0.00143462 0.86488357 6.45556760e-03
371 1 12.80262029 -0.00144385 0.87526322 4.90989307e-03
372 1 12.92436354 -0.00148002 0.88570591 5.52395043e-03
373 1 13.04609389 -0.00145648 0.89619215 5.87068470e-03
374 1 13.16779220 -0.00146029 0.90675709 4.87920209e-03
375 1 13.28952657 -0.00149575 0.91734958 6.41661913e-03
376 1 13.41124116 -0.00149986 0.92801070 4.89988333e-03
377 1 13.53297303 -0.00148479 0.93870007 5.51681014e-03
378 1 13.65469762 -0.00148880 0.94946964 5.85936171e-03
379 1 13.77636966 -0.00152236 0.96031706 4.85938456e-03
380 1 13.89806065 -0.00151745 0.97116501 6.38254444e-03
381 1 14.01978953 -0.00156921 0.98207281 4.88995824e-03
382 1 14.14149315 -0.00157684 0.99307876 5.57476230e-03
383 1 14.26317378 -0.00152183 1.00412606 5.93743790e-03
384 1 14.38483943 -0.00161496 1.01520917 5.98766457e-03
385 1 14.50652145 -0.00161655 1.02632447 5.96043235e-03
386 1 14.62819661 -0.00159442 1.03754442 4.81637844e-03
387 1 14.74990213 -0.00162710 1.04882096 6.34214196e-03
388 1 14.87158732 -0.00162340 1.06008089 4.87620659e-03
389 1 14.99325481 -0.00163147 1.07140905 5.56677439e-03
390 1 15.11492234 -0.00168317 1.08278008 5.93477518e-03
391 1 15.23655823 -0.00169987 1.09422449 5.98532808e-03
392 1 15.35821752 -0.00168850 1.10572200 5.94249673e-03
393 1 15.47985193 -0.00173753 1.11725633 4.79106117e-03
394 1 15.60149844 -0.00177805 1.12886392 6.34873408e-03
395 1 15.72311232 -0.00171905 1.14051094 5.10720957e-03
396 1 15.84473777 -0.00178887 1.15221857 4.79385489e-03
397 1 15.96638101 -0.00183549 1.16393876 6.33054845e-03
398 1 16.08804021 -0.00187578 1.17574190 5.10009402e-03
399 1 16.20962402 -0.00188589 1.18755434 4.78369059e-03
400 1 16.33128526 -0.00186675 1.19942137 6.31203828e-03
401 1 16.45290861 -0.00189466 1.21133361 5.09300092e-03
402 1 16.57448725 -0.00189803 1.22329652 4.74903927e-03
403 1 16.69609676 -0.00192112 1.23533977 6.32830758e-03
404 1 16.81774275 -0.00193277 1.24737219 5.08343922e-03
405 1 16.93935845 -0.00196104 1.25950011 4.32591159e-03
406 1 17.06094780 -0.00202106 1.27162289 6.00104739e-03
407 1 17.18256221 -0.00199541 1.28381068 5.21119202e-03
408 1 17.30411076 -0.00205921 1.29601496 6.09206826e-03
409 1 17.42572568 -0.00209400 1.30826965 6.05153388e-03
410 1 17.54729106 -0.00209278 1.32056309 5.91774538e-03
411 1 17.66889580 -0.00213137 1.33289366 6.22305381e-03
412 1 17.79048701 -0.00213272 1.34529925 5.03791106e-03
413 1 17.91205730 -0.00217081 1.35773268 4.72607940e-03
414 1 18.03365250 -0.00217583 1.37018840 8.71836332e-03
415 1 18.15522957 -0.00222875 1.38268930 5.95355142e-03
416 1 18.27680119 -0.00223252 1.39521607 5.36960420e-03
417 1 18.39837054 -0.00230839 1.40778658 6.03255871e-03
418 1 18.51992868 -0.00232112 1.42038111 5.00245570e-03
419 1 18.64146140 -0.00235955 1.43301831 4.70280803e-03
420 1 18.76302492 -0.00234828 1.44571231 8.65685956e-03
421 1 18.88457814 -0.00238082 1.45844083 5.94692135e-03
422 1 19.00614584 -0.00242474 1.47117482 5.65886656e-03
423 1 19.12770574 -0.00244345 1.48397144 5.98663784e-03
424 1 19.24922577 -0.00246818 1.49680279 6.03862808e-03
425 1 19.37076881 -0.00250867 1.50964678 6.08821513e-03
426 1 19.49233189 -0.00253007 1.52252232 6.17296108e-03
427 1 19.61388931 -0.00256162 1.53544398 6.04911048e-03
428 1 19.73542241 -0.00255930 1.54837451 6.99423467e-03
429 1 19.85696402 -0.00258420 1.56134599 6.49916941e-03
430 1 19.97850685 -0.00262366 1.57434167 6.05139015e-03
431 1 20.10002331 -0.00263659 1.58739188 6.07023001e-03
432 1 20.22155798 -0.00268299 1.60042683 6.06423220e-03
433 1 20.34309051 -0.00271650 1.61350562 6.03339671e-03
434 1 20.46463224 -0.00276160 1.62659509 6.06123277e-03
435 1 20.58614506 -0.00276877 1.63972868 6.05523286e-03
436 1 20.70766831 -0.00281700 1.65288559 6.01539697e-03
437 1 20.82920391 -0.00282530 1.66606858 6.05223237e-03
438 1 20.95073131 -0.00287272 1.67925485 6.04623034e-03
439 1 21.07222329 -0.00290120 1.69248279 5.99739088e-03
440 1 21.19375471 -0.00293178 1.70574132 6.03386113e-03
441 1 21.31528044 -0.00296151 1.71903078 6.06015229e-03
442 1 21.43677792 -0.00300230 1.73232995 6.93292310e-03
443 1 21.55827121 -0.00301831 1.74566392 6.60839364e-03
444 1 21.67977657 -0.00305857 1.75901648 6.08325267e-03
445 1 21.80128036 -0.00307687 1.77238274 5.98999100e-03
446 1 21.92279243 -0.00310506 1.78577821 6.02220795e-03
447 1 22.04429587 -0.00313328 1.79918975 5.94934321e-03
448 1 22.16579783 -0.00317989 1.81262168 6.00521256e-03
449 1 22.28730927 -0.00320626 1.82608534 5.96042100e-03
450 1 22.40879718 -0.00322996 1.83954994 6.01327673e-03
451 1 22.53030351 -0.00324934 1.85303878 6.06616825e-03
452 1 22.65180219 -0.00328820 1.86653905 6.09206826e-03
453 1 22.77330340 -0.00332296 1.88005819 6.22108889e-03
454 1 22.89480779 -0.00335591 1.89358815 6.93510095e-03
455 1 23.01630422 -0.00338562 1.90713648 6.55067958e-03
456 1 23.13778877 -0.00341851 1.92070173 5.44215936e-03
457 1 23.25928856 -0.00345719 1.93427088 5.52453627e-03
458 1 23.38078817 -0.00348022 1.94786125 6.09206826e-03
459 1 23.50228119 -0.00350717 1.96146818 5.52769247e-03
460 1 23.62377684 -0.00354368 1.97508030 5.54504444e-03
461 1 23.74527474 -0.00357174 1.98871623 6.09206826e-03
462 1 23.86675942 -0.00360865 2.00235512 5.52433613e-03
463 1 23.98825977 -0.00363934 2.01600356 5.54169116e-03
464 1 24.10975137 -0.00366077 2.02966068 6.09959331e-03
465 1 24.23124469 -0.00369889 2.04332824 5.37708140e-03
466 1 24.35274337 -0.00372993 2.05700384 5.50601994e-03
467 1 24.47424003 -0.00376182 2.07068888 6.09132348e-03
468 1 24.59573085 -0.00379298 2.08438095 5.36406280e-03
469 1 24.71722813 -0.00382473 2.09807794 5.50114066e-03
470 1 24.83872126 -0.00385410 2.11177710 6.07613573e-03
471 1 24.96022220 -0.00388876 2.12548495 5.86576563e-03
472 1 25.08171857 -0.00391889 2.13919661 5.87763704e-03
473 1 25.20321513 -0.00394978 2.15290946 5.79509293e-03
474 1 25.32471446 -0.00398378 2.16662798 6.45795830e-03
475 1 25.44621285 -0.00401566 2.18034645 6.36067877e-03
476 1 25.56771287 -0.00404809 2.19406705 5.01672083e-03
477 1 0.12245161 1.20964602 -0.24469038 -5.06599779e-03
478 1 0.24491891 1.20949388 -0.24470281 -5.96099493e-03
479 1 0.36751469 1.20923196 -0.24444920 -6.06828787e-03
480 1 0.49013079 1.20929168 -0.24411363 -6.09081051e-03
481 1 0.61271808 1.20927445 -0.24354460 -6.09597885e-03
482 1 0.73530208 1.20930687 -0.24288394 -6.09677124e-03
483 1 0.85803101 1.20916509 -0.24199866 -6.09261604e-03
484 1 0.98065634 1.20925647 -0.24100796 -6.09210769e-03
485 1 1.10336669 1.20914861 -0.23969589 -6.09159289e-03
486 1 1.22593047 1.20915682 -0.23834254 -6.09258964e-03
487 1 1.34855467 1.20939706 -0.23696054 -6.11404233e-03
488 1 1.47112820 1.20942522 -0.23527755 -6.12924398e-03
489 1 1.59366191 1.20926116 -0.23349506 -6.13810471e-03
490 1 1.71623886 1.20928146 -0.23162681 -6.10740278e-03
491 1 1.83886945 1.20924130 -0.22953834 -6.11299929e-03
492 1 1.96149922 1.20927842 -0.22715638 -6.11651709e-03
493 1 2.08406036 1.20920784 -0.22492363 -6.10892752e-03
494 1 2.20665465 1.20941713 -0.22240316 -6.08383817e-03
495 1 2.32928182 1.20949619 -0.21970174 -6.07811671e-03
496 1 2.45180690 1.20943202 -0.21681044 -6.12167487e-03
497 1 2.57430129 1.20933380 -0.21390342 -6.12891596e-03
498 1 2.69686437 1.20944937 -0.21089051 -6.13439434e-03
499 1 2.81947776 1.20953614 -0.20762203 -6.11877956e-03
500 1 2.94202348 1.20942494 -0.20426247 -6.09486572e-03
501 1 3.06454449 1.20952636 -0.20079281 -6.09206826e-03
502 1 3.18716333 1.20951331 -0.19718178 -6.09206855e-03
503 1 3.30966012 1.20950287 -0.19340967 -6.09206932e-03
504 1 3.43207026 1.20953374 -0.18953117 -6.11378764e-03
505 1 3.55472533 1.20970366 -0.18557192 -6.10132488e-03
506 1 3.67712588 1.20974389 -0.18144369 -6.14015253e-03
507 1 3.79958059 1.20967530 -0.17728221 -6.18862768e-03
508 1 3.92199783 1.20977514 -0.17285284 -6.20494803e-03
509 1 4.04443887 1.20977004 -0.16849482 -6.16689241e-03
510 1 4.16684247 1.20976836 -0.16391528 -6.13536340e-03
511 1 4.28928740 1.20974356 -0.15931400 -6.09206826e-03
512 1 4.41169868 1.20972942 -0.15459093 -6.09528258e-03
513 1 4.53416410 1.20981959 -0.14980599 -6.10197805e-03
514 1 4.65665356 1.20977405 -0.14488871 -6.09705471e-03
515 1 4.77904990 1.20982980 -0.13982338 -6.06436498e-03
516 1 4.90154257 1.20975330 -0.13459399 -6.12133674e-03
517 1 5.02389841 1.20982340 -0.12934780 -6.20974613e-03
518 1 5.14630456 1.20989235 -0.12396894 -6.24802334e-03
519 1 5.26866099 1.20992307 -0.11845827 -6.19819175e-03
520 1 5.39110268 1.20980467 -0.11285773 -6.15088270e-03
521 1 5.51354527 1.20984219 -0.10715220 -6.13301438e-03
522 1 5.63590297 1.20995980 -0.10133545 -6.10131989e-03
523 1 5.75833664 1.20994533 -0.09541518 -6.05757291e-03
524 1 5.88069829 1.21002017 -0.08939593 -6.04491082e-03
525 1 6.00300768 1.20998907 -0.08319714 -6.05437557e-03
526 1 6.12540641 1.21008788 -0.07699865 -6.06489385e-03
527 1 6.24771478 1.21013608 -0.07068563 -6.09206826e-03
528 1 6.37004739 1.21018895 -0.06424685 -6.09206826e-03
529 1 6.49239786 1.21009458 -0.05771401 -6.09979510e-03
530 1 6.61469403 1.21012089 -0.05107852 -6.12512692e-03
531 1 6.73702237 1.21020133 -0.04438022 -6.16578501e-03
532 1 6.85934701 1.21013501 -0.03749880 -6.26929389e-03
533 1 6.98157548 1.21015763 -0.03062354 -6.28695529e-03
534 1 7.10392257 1.21026863 -0.02372142 -6.28583704e-03
535 1 7.22619819 1.21022268 -0.01665179 -6.23881179e-03
536 1 7.34853210 1.21024455 -0.00946962 -6.30184580e-03