ITEM: TIMESTEP
0
ITEM: NUMBER OF ATOMS
10710
ITEM: BOX BOUNDS ff ff ff
-2.0 25.836150250623152
-2.00612442114357 3.2793166286233424
-2.245773483461966 11.818833001987208
ITEM: ATOMS id type x y z q
1 2 0.00000000 0.00000000 0.24527477 3.35542180e-03
2 2 0.00000000 0.00000000 -0.24472523 -3.35542180e-03
3 2 0.00000000 1.21000000 0.24527477 3.41686920e-03
4 2 0.00000000 1.21000000 -0.24472523 -3.41686920e-03
5 1 23.60326715 0.05519541 9.78815056 3.37776783e-03
6 1 23.83615025 0.06998018 9.35716480 -3.37776783e-03
7 1 23.58327107 1.26451344 9.81883300 3.41686920e-03
8 1 23.81613903 1.27931663 9.38784689 -3.41686920e-03
9 2 0.00000000 0.00000000 -0.12222523 0.00000000e+00
10 2 0.00000000 0.00000000 0.00027477 0.00000000e+00
11 2 0.00000000 0.00000000 0.12277477 0.00000000e+00
12 2 0.00000000 0.12100000 0.24527477 5.18139194e-03
13 2 0.00000000 0.24200000 0.24527477 5.50362000e-03
14 2 0.00000000 0.36300000 0.24527477 5.01501884e-03
15 2 0.00000000 0.48400000 0.24527477 5.50904170e-03
16 2 0.00000000 0.60500000 0.24527477 6.02408537e-03
17 2 0.00000000 0.72600000 0.24527477 6.86123120e-03
18 2 0.00000000 0.84700000 0.24527477 6.83241897e-03
19 2 0.00000000 0.96800000 0.24527477 5.84994208e-03
20 2 0.00000000 1.08900000 0.24527477 4.96878236e-03
21 2 0.00000000 1.21000000 -0.12222523 0.00000000e+00
22 2 0.00000000 1.21000000 0.00027477 0.00000000e+00
23 2 0.00000000 1.21000000 0.12277477 0.00000000e+00
24 2 0.00000000 0.12100000 -0.24472523 -5.18139194e-03
25 2 0.00000000 0.24200000 -0.24472523 -5.50362000e-03
26 2 0.00000000 0.36300000 -0.24472523 -5.01501884e-03
27 2 0.00000000 0.48400000 -0.24472523 -5.50904170e-03
28 2 0.00000000 0.60500000 -0.24472523 -6.02408537e-03
29 2 0.00000000 0.72600000 -0.24472523 -6.86123120e-03
30 2 0.00000000 0.84700000 -0.24472523 -6.83241897e-03
31 2 0.00000000 0.96800000 -0.24472523 -5.84994208e-03
32 2 0.00000000 1.08900000 -0.24472523 -4.96878236e-03
33 1 23.77792434 0.06628070 9.46491119 0.00000000e+00
34 1 23.71970480 0.06258441 9.57265485 0.00000000e+00
35 1 23.66148590 0.05889055 9.68040078 0.00000000e+00
36 1 23.60126979 0.17612630 9.79121914 5.05002864e-03
37 1 23.59926917 0.29705913 9.79428630 5.64089052e-03
38 1 23.59727018 0.41799113 9.79735396 5.44128437e-03
39 1 23.59528032 0.53892435 9.80042113 6.40224548e-03
40 1 23.59327463 0.65985612 9.80349081 6.88148315e-03
41 1 23.59127604 0.78078723 9.80655502 6.11583422e-03
42 1 23.58927455 0.90172042 9.80962312 5.69198232e-03
43 1 23.58726816 1.02265423 9.81269653 6.01735171e-03
44 1 23.58526757 1.14358541 9.81576497 5.43527194e-03
45 1 23.75791946 1.27561719 9.49559185 0.00000000e+00
46 1 23.69970228 1.27191593 9.60333577 0.00000000e+00
47 1 23.64148709 1.26821440 9.71108202 0.00000000e+00
48 1 23.83414642 0.19091007 9.36023423 -5.05002864e-03
49 1 23.83214781 0.31184426 9.36330761 -5.64089052e-03
50 1 23.83014552 0.43277745 9.36636791 -5.44128437e-03
51 1 23.82814787 0.55371096 9.36943132 -6.40224548e-03
52 1 23.82614982 0.67464515 9.37249975 -6.88148315e-03
53 1 23.82415032 0.79558141 9.37557657 -6.11583422e-03
54 1 23.82214666 0.91651793 9.37863791 -5.69198232e-03
55 1 23.82014352 1.03745310 9.38170858 -6.01735171e-03
56 1 23.81814139 1.15838520 9.38477881 -5.43527194e-03
57 1 0.12352629 0.00256432 -0.24577348 -4.80862070e-03
58 1 0.24740130 0.00455581 -0.24509091 -5.62714142e-03
59 1 0.37133460 0.00485930 -0.24389073 -6.00619986e-03
60 1 0.49590998 0.00479665 -0.24182437 -6.09052560e-03
61 1 0.62000697 0.00491999 -0.23862517 -6.09206826e-03
62 1 0.74422555 0.00591282 -0.23447264 -5.94781856e-03
63 1 0.86826662 0.00692716 -0.22957174 -5.82025544e-03
64 1 0.99214924 0.00630343 -0.22186424 -5.95871849e-03
65 1 1.11707561 0.00653271 -0.21449101 -6.09232315e-03
66 1 1.24133403 0.00617705 -0.20640288 -6.09205550e-03
67 1 1.36508384 0.00654911 -0.19677137 -6.08598370e-03
68 1 1.48893318 0.00742515 -0.18509850 -6.07933546e-03
69 1 1.61254520 0.00766262 -0.17425368 -6.08488133e-03
70 1 1.73604933 0.00764882 -0.16164823 -6.08161608e-03
71 1 1.85928266 0.00775110 -0.14821664 -6.08881076e-03
72 1 1.98339577 0.00762206 -0.13352887 -6.09207793e-03
73 1 2.10689541 0.00792143 -0.11833608 -6.09206431e-03
74 1 2.23019152 0.00874466 -0.10145281 -6.09206920e-03
75 1 2.35330840 0.00876194 -0.08423795 -6.09206749e-03
76 1 2.47592367 0.00860490 -0.06619542 -6.09206826e-03
77 1 2.59827512 0.00874249 -0.04743437 -6.09206901e-03
78 1 2.72097094 0.00808270 -0.02801184 -6.08547783e-03
79 1 2.84320359 0.00854485 -0.00772673 -6.07797420e-03
80 1 2.96529510 0.00962931 0.01343701 -6.08460882e-03
81 1 3.08731322 0.00930122 0.03525063 -6.08123045e-03
82 1 3.20894593 0.00968954 0.05812027 -6.08867780e-03
83 1 3.33031390 0.01002357 0.08171183 -6.09206866e-03
84 1 3.45192308 0.01029099 0.10617912 -6.09206839e-03
85 1 3.57303245 0.01002750 0.13083602 -6.09206833e-03
86 1 3.69426956 0.00982421 0.15660097 -6.09206826e-03
87 1 3.81554275 0.01067465 0.18297855 -6.09206824e-03
88 1 3.93628272 0.01106568 0.20966769 -6.09206825e-03
89 1 4.05705312 0.01069780 0.23681672 -6.10477040e-03
90 1 4.17760517 0.01145288 0.26477345 -6.10144793e-03
91 1 4.29754911 0.01164411 0.29348951 -6.09206826e-03
92 1 4.41803189 0.01170243 0.32245975 -6.08473760e-03
93 1 4.53767170 0.01188102 0.35210947 -6.07718969e-03
94 1 4.65742301 0.01239124 0.38262264 -6.08430762e-03
95 1 4.77696899 0.01291580 0.41338315 -6.08084602e-03
96 1 4.89663395 0.01300211 0.44448926 -6.08857506e-03
97 1 5.01617341 0.01380821 0.47657940 -6.09439460e-03
98 1 5.13546663 0.01363019 0.50918659 -6.09360296e-03
99 1 5.25431297 0.01402951 0.54276242 -6.10212083e-03
100 1 5.37334474 0.01407800 0.57637531 -6.09455787e-03
101 1 5.49179298 0.01490787 0.61040350 -6.08457013e-03
102 1 5.61015094 0.01504930 0.64513747 -6.08334006e-03
103 1 5.72890674 0.01519619 0.68080008 -6.09025173e-03
104 1 5.84676270 0.01549945 0.71652639 -6.09206826e-03
105 1 5.96472334 0.01579286 0.75266673 -6.09206826e-03
106 1 6.08247617 0.01651865 0.78943553 -6.08838437e-03
107 1 6.19990702 0.01682911 0.82656785 -6.09329454e-03
108 1 6.31775003 0.01671342 0.86412243 -6.09400483e-03
109 1 6.43512270 0.01729596 0.90224066 -6.08872179e-03
110 1 6.55245516 0.01787738 0.94119259 -6.08812243e-03
111 1 6.66914455 0.01823533 0.98028255 -6.09206826e-03
112 1 6.78612815 0.01850180 1.01953856 -6.09206826e-03
113 1 6.90261668 0.01877699 1.05917776 -6.09206826e-03
114 1 7.01880332 0.01929086 1.09969266 -6.06302327e-03
115 1 7.13518004 0.01916288 1.14044586 -6.06302327e-03
116 1 7.25146963 0.01953443 1.18178571 -5.90236529e-03
117 1 7.36735744 0.01994377 1.22348355 -5.81608564e-03
118 1 7.48311752 0.02030690 1.26535113 -6.10035823e-03
119 1 7.59887293 0.02060255 1.30769045 -5.08741334e-03
120 1 7.71426919 0.02087776 1.35032491 -6.87719096e-03
121 1 7.82943619 0.02135588 1.39326664 -5.18694999e-03
122 1 7.94501218 0.02137637 1.43644446 -5.00655937e-03
123 1 8.05992940 0.02182259 1.48013880 -7.17602109e-03
124 1 8.17487532 0.02244548 1.52411333 -5.64123658e-03
125 1 8.28999998 0.02285976 1.56846502 -5.91249038e-03
126 1 8.40451471 0.02304111 1.61299065 -5.77202514e-03
127 1 8.51899277 0.02341355 1.65781832 -5.95689302e-03
128 1 8.63361368 0.02392300 1.70301061 -6.09206826e-03
129 1 8.74793509 0.02395755 1.74861456 -6.09206826e-03
130 1 8.86203843 0.02431701 1.79437418 -6.09206826e-03
131 1 8.97603409 0.02476842 1.84035443 -6.00199927e-03
132 1 9.09011827 0.02554472 1.88669206 -6.06987486e-03
133 1 9.20399516 0.02592960 1.93338097 -5.02835518e-03
134 1 9.31763453 0.02621382 1.98030516 -6.79157831e-03
135 1 9.43093679 0.02683015 2.02769151 -4.92113473e-03
136 1 9.54448742 0.02694426 2.07521054 -5.56259368e-03
137 1 9.65787575 0.02710301 2.12316876 -5.94323360e-03
138 1 9.77104633 0.02770546 2.17154807 -5.00637084e-03
139 1 9.88388843 0.02789709 2.21976128 -6.75640181e-03
140 1 9.99669576 0.02801118 2.26834615 -4.91035923e-03
141 1 10.10932970 0.02833908 2.31725510 -5.75765677e-03
142 1 10.22203714 0.02872681 2.36622436 -6.37465021e-03
143 1 10.33462769 0.02928104 2.41539433 -6.33172667e-03
144 1 10.44701259 0.02970629 2.46479972 -5.77695765e-03
145 1 10.55948184 0.03029228 2.51444041 -5.75602868e-03
146 1 10.67175058 0.03055262 2.56420040 -5.94989338e-03
147 1 10.78370102 0.03081447 2.61443318 -6.09206826e-03
148 1 10.89573985 0.03140884 2.66485193 -6.09206826e-03
149 1 11.00765076 0.03158760 2.71550090 -6.49862787e-03
150 1 11.11947819 0.03205830 2.76644510 -6.47806478e-03
151 1 11.23121406 0.03221282 2.81738990 -5.98398651e-03
152 1 11.34288209 0.03271063 2.86871140 -5.97118729e-03
153 1 11.45435156 0.03290666 2.92005418 -6.32827249e-03
154 1 11.56579093 0.03328754 2.97151772 -6.38296841e-03
155 1 11.67717092 0.03390055 3.02320039 -6.09206826e-03
156 1 11.78836371 0.03403986 3.07520199 -5.92176613e-03
157 1 11.89944906 0.03445366 3.12723234 -5.84196899e-03
158 1 12.01034269 0.03476978 3.17939391 -5.89327746e-03
159 1 12.12134541 0.03519379 3.23195355 -4.96011300e-03
160 1 12.23217980 0.03557067 3.28448410 -6.65158567e-03
161 1 12.34290449 0.03591842 3.33728017 -4.90989307e-03
162 1 12.45375839 0.03625399 3.39013889 -5.52395043e-03
163 1 12.56437447 0.03674501 3.44321548 -5.87068470e-03
164 1 12.67490321 0.03708849 3.49637972 -4.88602194e-03
165 1 12.78531450 0.03749320 3.54970809 -6.40279006e-03
166 1 12.89569454 0.03781625 3.60313295 -5.12407601e-03
167 1 13.00597644 0.03812100 3.65674999 -4.88216806e-03
168 1 13.11621419 0.03845122 3.71044877 -6.38017819e-03
169 1 13.22634837 0.03895935 3.76430661 -5.11373203e-03
170 1 13.33641433 0.03924917 3.81830228 -4.85398664e-03
171 1 13.44646702 0.03957721 3.87243052 -6.35577596e-03
172 1 13.55632296 0.04003972 3.92670231 -5.10698016e-03
173 1 13.66627400 0.04026240 3.98102483 -4.85870271e-03
174 1 13.77602591 0.04063088 4.03560628 -6.37702085e-03
175 1 13.88580492 0.04087014 4.09013753 -5.10092274e-03
176 1 13.99548696 0.04129040 4.14482092 -4.84968636e-03
177 1 14.10506469 0.04169044 4.19963415 -6.37599125e-03
178 1 14.21467912 0.04204935 4.25454986 -4.87710407e-03
179 1 14.32422484 0.04241829 4.30961207 -5.56677439e-03
180 1 14.43372058 0.04266193 4.36471900 -5.93477518e-03
181 1 14.54311876 0.04309909 4.41997547 -6.09206826e-03
182 1 14.65248692 0.04340286 4.47528675 -6.09206826e-03
183 1 14.76176913 0.04380123 4.53069245 -5.98211588e-03
184 1 14.87096206 0.04412621 4.58619829 -5.88223740e-03
185 1 14.98013464 0.04450094 4.64186689 -5.93479953e-03
186 1 15.08927898 0.04469110 4.69760738 -4.77734034e-03
187 1 15.19830413 0.04505726 4.75338864 -6.31776323e-03
188 1 15.30733050 0.04546423 4.80923454 -4.85845554e-03
189 1 15.41633210 0.04583439 4.86523466 -5.48045656e-03
190 1 15.52525332 0.04614149 4.92127959 -5.74774533e-03
191 1 15.63407207 0.04642983 4.97740763 -5.91938606e-03
192 1 15.74290889 0.04672734 5.03369360 -4.72601755e-03
193 1 15.85170093 0.04709798 5.09000954 -6.44309587e-03
194 1 15.96039949 0.04743106 5.14633382 -5.21392668e-03
195 1 16.06911351 0.04775329 5.20269582 -4.32492230e-03
196 1 16.17779300 0.04808070 5.25918040 -6.11554878e-03
197 1 16.28637832 0.04840686 5.31574869 -5.20526136e-03
198 1 16.39501486 0.04875396 5.37239611 -4.31230685e-03
199 1 16.50353092 0.04908148 5.42902589 -6.11716232e-03
200 1 16.61198742 0.04947501 5.48579328 -5.69773107e-03
201 1 16.72047506 0.04972847 5.54259176 -5.99314584e-03
202 1 16.82892523 0.05009135 5.59947469 -4.76350900e-03
203 1 16.93728635 0.05038368 5.65644143 -5.21120302e-03
204 1 17.04567046 0.05071878 5.71340144 -6.01204532e-03
205 1 17.15397258 0.05102299 5.77040924 -5.73233737e-03
206 1 17.26228885 0.05129395 5.82750077 -5.81943467e-03
207 1 17.37051718 0.05164380 5.88462639 -6.32655047e-03
208 1 17.47879055 0.05194806 5.94182999 -5.03614005e-03
209 1 17.58699855 0.05226250 5.99901000 -4.70280803e-03
210 1 17.69513627 0.05257223 6.05629499 -8.65683464e-03
211 1 17.80330218 0.05292466 6.11359618 -5.94692004e-03
212 1 17.91138526 0.05323347 6.17096676 -5.65885778e-03
213 1 18.01952477 0.05354266 6.22835215 -5.99277035e-03
214 1 18.12758136 0.05382363 6.28579405 -6.04066598e-03
215 1 18.23561172 0.05411523 6.34324688 -6.09206826e-03
216 1 18.34365746 0.05449263 6.40077917 -6.09206826e-03
217 1 18.45163694 0.05480900 6.45830104 -6.09206826e-03
218 1 18.55963680 0.05508001 6.51586398 -5.94140402e-03
219 1 18.66759290 0.05537494 6.57345803 -6.09135703e-03
220 1 18.77552799 0.05569871 6.63108575 -6.09135703e-03
221 1 18.88346886 0.05600804 6.68875040 -6.09206826e-03
222 1 18.99137243 0.05631660 6.74642935 -6.22362401e-03
223 1 19.09923596 0.05665593 6.80413628 -6.30618064e-03
224 1 19.20711491 0.05694746 6.86187218 -6.16079228e-03
225 1 19.31497143 0.05723873 6.91962340 -6.90076158e-03
226 1 19.42280028 0.05755094 6.97739778 -7.19612184e-03
227 1 19.53063299 0.05786186 7.03519930 -6.17999120e-03
228 1 19.63844107 0.05818713 7.09302596 -5.85545161e-03
229 1 19.74623011 0.05848767 7.15086990 -6.04373412e-03
230 1 19.85401141 0.05880711 7.20875367 -6.05837687e-03
231 1 19.96178504 0.05910372 7.26664239 -6.22625934e-03
232 1 20.06952951 0.05939776 7.32454163 -6.96326852e-03
233 1 20.17727763 0.05970349 7.38245928 -6.60839364e-03
234 1 20.28498891 0.06001702 7.44040440 -6.08325267e-03
235 1 20.39269482 0.06032157 7.49837032 -5.98999100e-03
236 1 20.50040155 0.06062927 7.55634621 -6.02220795e-03
237 1 20.60809584 0.06092230 7.61433376 -5.94934321e-03
238 1 20.71577903 0.06122228 7.67233339 -6.23085673e-03
239 1 20.82344531 0.06152825 7.73034003 -5.91383044e-03
240 1 20.93112038 0.06184113 7.78836320 -5.82022831e-03
241 1 21.03877488 0.06213852 7.84638970 -6.06616825e-03
242 1 21.14642860 0.06242749 7.90444195 -6.09206826e-03
243 1 21.25406232 0.06273530 7.96249534 -6.22108889e-03
244 1 21.36169754 0.06304821 8.02055088 -6.93510095e-03
245 1 21.46932203 0.06335115 8.07862025 -6.55067958e-03
246 1 21.57695411 0.06365025 8.13669278 -5.44215936e-03
247 1 21.68456419 0.06395676 8.19477174 -5.52453627e-03
248 1 21.79217951 0.06426314 8.25286435 -6.11677386e-03
249 1 21.89978371 0.06456464 8.31095025 -5.40422112e-03
250 1 22.00738865 0.06486077 8.36905264 -5.51625079e-03
251 1 22.11498725 0.06515696 8.42716236 -6.10817079e-03
252 1 22.22257904 0.06545676 8.48527195 -5.39058303e-03
253 1 22.33016392 0.06575709 8.54338721 -5.51111698e-03
254 1 22.43775191 0.06605428 8.60150479 -6.09959331e-03
255 1 22.54533526 0.06635689 8.65962244 -5.37708140e-03
256 1 22.65291253 0.06665963 8.71774478 -5.50601994e-03
257 1 22.76048938 0.06695693 8.77586730 -6.09132348e-03
258 1 22.86806312 0.06725540 8.83399295 -5.36406280e-03
259 1 22.97563123 0.06755694 8.89212320 -5.50114066e-03
260 1 23.08320151 0.06786035 8.95025183 -6.07613573e-03
261 1 23.19076898 0.06816028 9.00838433 -5.86576563e-03
262 1 23.29834012 0.06846649 9.06651108 -5.87763703e-03
263 1 23.40590698 0.06877148 9.12464150 -5.79509293e-03
264 1 23.51347252 0.06907580 9.18277128 -6.45795830e-03
265 1 23.62103378 0.06937478 9.24090260 -6.36067877e-03
266 1 23.72859258 0.06967559 9.29903368 -5.01672083e-03
267 1 0.12130417 -0.00203755 0.24402356 4.80862070e-03
268 1 0.24239826 -0.00388037 0.24412025 5.62714142e-03
269 1 0.36340092 -0.00394145 0.24490394 6.00619986e-03
270 1 0.48416780 -0.00419132 0.24788720 6.09052560e-03
271 1 0.60398101 -0.00540153 0.25105244 6.09206826e-03
272 1 0.72480869 -0.00597529 0.25485645 5.94781856e-03
273 1 0.84541910 -0.00612442 0.26054290 5.82025544e-03
274 1 0.96515722 -0.00498626 0.26640266 5.95871849e-03
275 1 1.08496501 -0.00482855 0.27388300 6.09232315e-03
276 1 1.20523083 -0.00500334 0.28288069 6.09205550e-03
277 1 1.32531381 -0.00440753 0.29169682 6.08598370e-03
278 1 1.44573628 -0.00480101 0.30144905 6.07933546e-03
279 1 1.56609394 -0.00498290 0.31297554 6.08488133e-03
280 1 1.68534590 -0.00483405 0.32489882 6.08161608e-03
281 1 1.80535756 -0.00519461 0.33828646 6.08881076e-03
282 1 1.92556449 -0.00539497 0.35250228 6.09207793e-03
283 1 2.04412999 -0.00487096 0.36694917 6.09206431e-03
284 1 2.16423658 -0.00389532 0.38266645 6.09206920e-03
285 1 2.28379450 -0.00402010 0.39984190 6.09206749e-03
286 1 2.40343696 -0.00379285 0.41774814 6.09206826e-03
287 1 2.52298139 -0.00342959 0.43573347 6.09206901e-03
288 1 2.64258926 -0.00363316 0.45553182 6.08547783e-03
289 1 2.76153269 -0.00328760 0.47505302 6.07797420e-03
290 1 2.88051299 -0.00287433 0.49583615 6.08460882e-03
291 1 2.99969091 -0.00217798 0.51716477 6.08123045e-03
292 1 3.11875762 -0.00186074 0.53978457 6.08867780e-03
293 1 3.23708275 -0.00177593 0.56237427 6.09206866e-03
294 1 3.35575507 -0.00207594 0.58582736 6.09206839e-03
295 1 3.47423242 -0.00131749 0.61031683 6.09206833e-03
296 1 3.59271754 -0.00121539 0.63542953 6.09206826e-03
297 1 3.71137259 -0.00113108 0.66119810 6.09206824e-03
298 1 3.82931740 -0.00114027 0.68727433 6.09206825e-03
299 1 3.94738184 -0.00083148 0.71429660 6.10477040e-03
300 1 4.06499958 -0.00023554 0.74155887 6.10144793e-03
301 1 4.18324286 0.00008560 0.76964489 6.09206826e-03
302 1 4.30121290 0.00038828 0.79826173 6.08473760e-03
303 1 4.41911585 0.00018999 0.82690906 6.07718969e-03
304 1 4.53690771 -0.00010175 0.85654745 6.08430762e-03
305 1 4.65415904 0.00111770 0.88703856 6.08084602e-03
306 1 4.77131240 0.00120842 0.91784997 6.08857506e-03
307 1 4.88833459 0.00113039 0.94941488 6.09439460e-03
308 1 5.00530989 0.00116850 0.98153629 6.09360296e-03
309 1 5.12203907 0.00214464 1.01383929 6.10212083e-03
310 1 5.23841531 0.00217906 1.04687439 6.09455787e-03
311 1 5.35508521 0.00242011 1.08055923 6.08457013e-03
312 1 5.47163210 0.00286314 1.11471641 6.08334006e-03
313 1 5.58780532 0.00314545 1.14919835 6.09025173e-03
314 1 5.70403271 0.00314922 1.18433517 6.09206826e-03
315 1 5.82041835 0.00328342 1.22014748 6.09206826e-03
316 1 5.93625302 0.00369594 1.25618664 6.08838437e-03
317 1 6.05178087 0.00432545 1.29309171 6.09329454e-03
318 1 6.16705564 0.00386812 1.33024698 6.09400483e-03
319 1 6.28273816 0.00417993 1.36774494 6.08872179e-03
320 1 6.39832287 0.00455899 1.40565660 6.08812243e-03
321 1 6.51342605 0.00513557 1.44371402 6.09206826e-03
322 1 6.62850690 0.00534584 1.48278482 6.09206826e-03
323 1 6.74349705 0.00596510 1.52242982 6.09206826e-03
324 1 6.85811586 0.00615711 1.56219139 6.06302327e-03
325 1 6.97268031 0.00665954 1.60243278 6.06302327e-03
326 1 7.08714196 0.00698303 1.64297789 5.90236529e-03
327 1 7.20168045 0.00743565 1.68414934 5.81608564e-03
328 1 7.31611808 0.00803587 1.72564707 6.10035823e-03
329 1 7.43013487 0.00804138 1.76745631 5.08741347e-03
330 1 7.54466759 0.00828049 1.80940964 6.88423117e-03
331 1 7.65848276 0.00879172 1.85214127 4.95164977e-03
332 1 7.77209422 0.00914714 1.89457079 5.63292633e-03
333 1 7.88586922 0.00928227 1.93780100 5.95654755e-03
334 1 7.99959232 0.00959246 1.98124570 6.00432988e-03
335 1 8.11316495 0.01007358 2.02499827 6.08757506e-03
336 1 8.22656460 0.01042048 2.06914940 5.05700823e-03
337 1 8.33999012 0.01049168 2.11346973 6.83715280e-03
338 1 8.45320464 0.01100256 2.15802599 4.93632937e-03
339 1 8.56640373 0.01110645 2.20323364 5.62467055e-03
340 1 8.67930581 0.01121278 2.24843248 5.95386311e-03
341 1 8.79197702 0.01160240 2.29408585 6.00199927e-03
342 1 8.90485319 0.01190968 2.34009365 6.06987486e-03
343 1 9.01721165 0.01216541 2.38621157 5.01509653e-03
344 1 9.12996829 0.01261722 2.43264164 6.78511241e-03
345 1 9.24237266 0.01283768 2.47939996 4.92113473e-03
346 1 9.35464551 0.01307375 2.52667831 5.61645056e-03
347 1 9.46668200 0.01364112 2.57411454 5.95118153e-03
348 1 9.57878630 0.01387206 2.62169598 6.09206826e-03
349 1 9.69057335 0.01428586 2.66975937 6.09206826e-03
350 1 9.80249706 0.01456510 2.71783482 6.09206826e-03
351 1 9.91442931 0.01498647 2.76632976 6.50085567e-03
352 1 10.02619780 0.01531380 2.81491412 6.38496347e-03
353 1 10.13799319 0.01561325 2.86376131 5.77251663e-03
354 1 10.24942090 0.01589947 2.91278626 5.73476969e-03
355 1 10.36101690 0.01618029 2.96209576 5.94888879e-03
356 1 10.47239947 0.01624692 3.01157641 6.09206826e-03
357 1 10.58360837 0.01679743 3.06127323 6.09206826e-03
358 1 10.69480134 0.01705293 3.11132103 6.09206826e-03
359 1 10.80582770 0.01724566 3.16150013 6.09206826e-03
360 1 10.91656570 0.01770988 3.21201663 4.98457375e-03
361 1 11.02758497 0.01813886 3.26272409 6.69756871e-03
362 1 11.13848495 0.01856863 3.31362112 5.15375987e-03
363 1 11.24911675 0.01887070 3.36454680 4.95985007e-03
364 1 11.35977419 0.01918348 3.41566866 6.48212442e-03
365 1 11.47043357 0.01943551 3.46719425 5.14927068e-03
366 1 11.58092788 0.01989335 3.51871740 4.95341033e-03
367 1 11.69131059 0.01997477 3.57055125 6.46347279e-03
368 1 11.80161111 0.02057041 3.62238554 5.14043101e-03
369 1 11.91178639 0.02073743 3.67451482 4.91020010e-03
370 1 12.02215749 0.02117229 3.72679223 6.45556760e-03
371 1 12.13235733 0.02151515 3.77927644 4.90989307e-03
372 1 12.24243472 0.02177394 3.83190824 5.52395043e-03
373 1 12.35242643 0.02221061 3.88465174 5.87068470e-03
374 1 12.46226223 0.02256708 3.93757144 4.87920209e-03
375 1 12.57217530 0.02284214 3.99060480 6.41661913e-03
376 1 12.68196488 0.02320288 4.04380594 4.89988333e-03
377 1 12.79177165 0.02361436 4.09709188 5.51681014e-03
378 1 12.90148525 0.02397076 4.15058106 5.85936171e-03
379 1 13.01099406 0.02425118 4.20421838 4.85938456e-03
380 1 13.12055313 0.02463356 4.25787932 6.38254444e-03
381 1 13.23016035 0.02487407 4.31172202 4.88995824e-03
382 1 13.33961173 0.02521922 4.36578112 5.57476230e-03
383 1 13.44896495 0.02573090 4.41992684 5.93743790e-03
384 1 13.55826795 0.02586577 4.47413199 5.98766457e-03
385 1 13.66757320 0.02623081 4.52844087 5.96043235e-03
386 1 13.77676995 0.02664966 4.58298350 4.81637844e-03
387 1 13.88599713 0.02693755 4.63767797 6.34214196e-03
388 1 13.99518895 0.02732075 4.69232714 4.87620659e-03
389 1 14.10428262 0.02767291 4.74711087 5.56677439e-03
390 1 14.21334916 0.02792266 4.80198642 5.93477518e-03
391 1 14.32228370 0.02824913 4.85699395 5.98532808e-03
392 1 14.43122309 0.02864590 4.91214922 5.94249673e-03
393 1 14.54008560 0.02890162 4.96734812 4.79106117e-03
394 1 14.64891818 0.02917795 5.02270944 6.34873408e-03
395 1 14.75764777 0.02967978 5.07814011 5.10720957e-03
396 1 14.86636409 0.02989395 5.13369024 4.79385489e-03
397 1 14.97510527 0.03016242 5.18928546 6.33054845e-03
398 1 15.08381426 0.03044477 5.24505619 5.10009402e-03
399 1 15.19237301 0.03078952 5.30078314 4.78369059e-03
400 1 15.30104034 0.03119752 5.35668080 6.31203828e-03
401 1 15.40960461 0.03151105 5.41264093 5.09300092e-03
402 1 15.51805110 0.03186950 5.46865605 4.74903927e-03
403 1 15.62649956 0.03218560 5.52484175 6.32830758e-03
404 1 15.73501969 0.03253089 5.58104027 5.08343922e-03
405 1 15.84342271 0.03283778 5.63737656 4.32591159e-03
406 1 15.95178630 0.03309134 5.69368677 6.00104739e-03
407 1 16.06014766 0.03350324 5.75013472 5.21119202e-03
408 1 16.16839342 0.03375379 5.80656090 6.09206826e-03
409 1 16.27671472 0.03405804 5.86312164 6.05153388e-03
410 1 16.38493075 0.03442228 5.91971025 5.91774538e-03
411 1 16.49318888 0.03471622 5.97638422 6.22305381e-03
412 1 16.60137944 0.03507283 6.03317171 5.03791106e-03
413 1 16.70952223 0.03537044 6.08998960 4.72607940e-03
414 1 16.81769122 0.03571779 6.14685520 8.71836332e-03
415 1 16.92580620 0.03599714 6.20378115 5.95355142e-03
416 1 17.03389841 0.03635109 6.26074451 5.36960420e-03
417 1 17.14196272 0.03659007 6.31776572 6.03255871e-03
418 1 17.24999889 0.03692558 6.37481581 5.00245570e-03
419 1 17.35798116 0.03722348 6.43191499 4.70280803e-03
420 1 17.46597127 0.03759464 6.48910986 8.65685956e-03
421 1 17.57393192 0.03790342 6.54634655 5.94692135e-03
422 1 17.68190848 0.03819852 6.60360200 5.65886656e-03
423 1 17.78984293 0.03852524 6.66093269 5.98663784e-03
424 1 17.89771117 0.03884164 6.71828558 6.03862808e-03
425 1 18.00560685 0.03913722 6.77566332 6.08821513e-03
426 1 18.11351085 0.03946012 6.83309273 6.17296108e-03
427 1 18.22138415 0.03976854 6.89057869 6.04911048e-03
428 1 18.32922225 0.04012262 6.94806238 6.99423467e-03
429 1 18.43705284 0.04043519 7.00559787 6.49916941e-03
430 1 18.54487542 0.04073575 7.06316331 6.05139015e-03
431 1 18.65264353 0.04106818 7.12077842 6.07023001e-03
432 1 18.76044394 0.04135988 7.17838219 6.06423220e-03
433 1 18.86822147 0.04166643 7.23603305 6.03339671e-03
434 1 18.97600883 0.04196080 7.29369854 6.06123277e-03
435 1 19.08374190 0.04229956 7.35140534 6.05523286e-03
436 1 19.19147946 0.04259041 7.40913608 6.01539697e-03
437 1 19.29921673 0.04292503 7.46690078 6.05223237e-03
438 1 19.40694788 0.04321781 7.52466112 6.04623034e-03
439 1 19.51462832 0.04353449 7.58245757 5.99739088e-03
440 1 19.62233470 0.04384725 7.64029357 6.03386113e-03
441 1 19.73002422 0.04415587 7.69815449 6.06015229e-03
442 1 19.83768754 0.04445309 7.75600852 6.93292310e-03
443 1 19.94533241 0.04477971 7.81390029 6.60839364e-03
444 1 20.05298497 0.04507683 7.87180544 6.08325267e-03
445 1 20.16062902 0.04539721 7.92972666 5.98999100e-03
446 1 20.26827208 0.04570629 7.98766923 6.02220795e-03
447 1 20.37590442 0.04601773 8.04562221 5.94934321e-03
448 1 20.48353204 0.04631360 8.10359004 6.00521256e-03
449 1 20.59115388 0.04662841 8.16159302 5.96042100e-03
450 1 20.69876277 0.04693956 8.21957956 6.01327673e-03
451 1 20.80637302 0.04726152 8.27759771 6.06616825e-03
452 1 20.91398305 0.04755881 8.33561257 6.09206826e-03
453 1 21.02158395 0.04786892 8.39365225 6.22108889e-03
454 1 21.12918697 0.04817504 8.45169358 6.93510095e-03
455 1 21.23678015 0.04848010 8.50974118 6.55067958e-03
456 1 21.34435904 0.04878898 8.56779814 5.44215936e-03
457 1 21.45194958 0.04909287 8.62586201 5.52453627e-03
458 1 21.55953510 0.04940414 8.68393945 6.09206826e-03
459 1 21.66710943 0.04971449 8.74202348 5.52769247e-03
460 1 21.77468406 0.05001430 8.80010805 5.54504444e-03
461 1 21.88225714 0.05032058 8.85820964 6.09206826e-03
462 1 21.98982218 0.05062444 8.91630668 5.52433613e-03
463 1 22.09739564 0.05092933 8.97441202 5.54169116e-03
464 1 22.20496366 0.05123573 9.03251704 6.09959331e-03
465 1 22.31253353 0.05153317 9.09062326 5.37708140e-03
466 1 22.42010035 0.05184110 9.14874508 5.50601994e-03
467 1 22.52766440 0.05214148 9.20686829 6.09132348e-03
468 1 22.63522554 0.05244713 9.26499095 5.36406280e-03
469 1 22.74279129 0.05275359 9.32311680 5.50114066e-03
470 1 22.85035357 0.05305784 9.38124061 6.07613573e-03
471 1 22.95791643 0.05336371 9.43937218 5.86576563e-03
472 1 23.06547758 0.05367103 9.49750416 5.87763704e-03
473 1 23.17304037 0.05397897 9.55563202 5.79509293e-03
474 1 23.28059276 0.05428244 9.61376620 6.45795830e-03
475 1 23.38815327 0.05458496 9.67189328 6.36067877e-03
476 1 23.49571114 0.05489331 9.73002208 5.01672083e-03
477 1 0.12320153 1.20791564 -0.24462398 -5.06599779e-03
478 1 0.24658441 1.20710544 -0.24479998 -5.96099493e-03
479 1 0.37080682 1.20556364 -0.24307130 -6.06828787e-03
480 1 0.49508985 1.20603721 -0.24076447 -6.09081051e-03
481 1 0.61913229 1.20599132 -0.23691485 -6.09597885e-03
482 1 0.74313313 1.20624595 -0.23244376 -6.09677124e-03
483 1 0.86801215 1.20541351 -0.22639594 -6.09261604e-03
484 1 0.99217909 1.20607143 -0.21971784 -6.09210769e-03
485 1 1.11674250 1.20549883 -0.21088742 -6.09159289e-03
486 1 1.24036521 1.20566847 -0.20181646 -6.09258964e-03
487 1 1.36433254 1.20727459 -0.19253216 -6.11404233e-03
488 1 1.48784623 1.20756033 -0.18133710 -6.12924398e-03
489 1 1.61104018 1.20664468 -0.16953671 -6.13810471e-03
490 1 1.73445873 1.20689980 -0.15718233 -6.10740278e-03
491 1 1.85808202 1.20679703 -0.14338534 -6.11299929e-03
492 1 1.98146886 1.20718975 -0.12773384 -6.11651709e-03
493 1 2.10456215 1.20690652 -0.11302731 -6.10892752e-03
494 1 2.22766432 1.20832856 -0.09652390 -6.08383817e-03
495 1 2.35078672 1.20901487 -0.07889842 -6.07811671e-03
496 1 2.47312858 1.20882386 -0.06013387 -6.12167487e-03
497 1 2.59531465 1.20842015 -0.04128111 -6.12891596e-03
498 1 2.71778932 1.20929370 -0.02176533 -6.13439434e-03
499 1 2.84031116 1.21001793 -0.00062848 -6.11877956e-03
500 1 2.96238135 1.20959657 0.02096827 -6.09486572e-03
501 1 3.08419157 1.21040971 0.04320484 -6.09206826e-03
502 1 3.20641481 1.21057167 0.06636798 -6.09206855e-03
503 1 3.32777844 1.21074400 0.09038653 -6.09206932e-03
504 1 3.44852304 1.21117158 0.11490273 -6.11378764e-03
505 1 3.57058432 1.21240654 0.14014515 -6.10132488e-03
506 1 3.69101832 1.21287480 0.16612604 -6.14015253e-03
507 1 3.81170096 1.21274453 0.19234323 -6.18862768e-03
508 1 3.93189593 1.21354496 0.22000975 -6.20494803e-03
509 1 4.05230683 1.21378238 0.24732047 -6.16689241e-03
510 1 4.17226228 1.21403035 0.27581738 -6.13536340e-03
511 1 4.29240717 1.21419833 0.30448345 -6.09206826e-03
512 1 4.41222514 1.21442026 0.33376761 -6.09528258e-03
513 1 4.53225972 1.21517609 0.36346880 -6.10197805e-03
514 1 4.65227891 1.21521871 0.39391912 -6.09705471e-03
515 1 4.77160652 1.21578821 0.42506232 -6.06436498e-03
516 1 4.89121882 1.21566384 0.45718678 -6.12133674e-03
517 1 5.01009997 1.21632316 0.48925912 -6.20974613e-03
518 1 5.12909788 1.21697406 0.52206675 -6.24802334e-03
519 1 5.24766347 1.21744209 0.55551762 -6.19819175e-03
520 1 5.36653662 1.21714792 0.58953458 -6.15088270e-03
521 1 5.48527333 1.21762998 0.62410038 -6.13301438e-03
522 1 5.60345104 1.21855133 0.65912725 -6.10131989e-03
523 1 5.72187117 1.21879661 0.69477279 -6.05757291e-03
524 1 5.83980259 1.21949761 0.73081569 -6.04491082e-03
525 1 5.95724414 1.21965438 0.76767434 -6.05437557e-03
526 1 6.07511282 1.22047703 0.80465140 -6.06489385e-03
527 1 6.19238470 1.22104224 0.84206707 -6.09206826e-03
528 1 6.30959971 1.22162710 0.88013729 -6.09206826e-03
529 1 6.42674034 1.22152217 0.91869812 -6.09979510e-03
530 1 6.54350815 1.22198136 0.95765844 -6.12512692e-03
531 1 6.66035473 1.22270825 0.99693989 -6.16578501e-03
532 1 6.77694348 1.22273471 1.03704856 -6.26929389e-03
533 1 6.89309567 1.22317291 1.07702622 -6.28695529e-03
534 1 7.00975294 1.22404198 1.11727422 -6.28583704e-03
535 1 7.12585823 1.22417232 1.15818521 -6.23881179e-03
536 1 7.24207411 1.22462776 1.19969698 -6.30184580e-03
537 1 7.35782149 1.22513813 1.24145697 -6.28022129e-03
538 1 7.47354253 1.22564560 1.28340449 -6.24103982e-03
539 1 7.58926061 1.22616700 1.32576834 -6.33470904e-03
540 1 7.70482141 1.22608598 1.36891405 -6.28101331e-03
541 1 7.81985809 1.22686140 1.41204859 -6.25562069e-03