ITEM: TIMESTEP
0
ITEM: NUMBER OF ATOMS
10710
ITEM: BOX BOUNDS ff ff ff
-2.0 27.415349613328097
-2.0092898573453795 3.2133332382680493
-2.2451292569800825 6.68573715807921
ITEM: ATOMS id type x y z q
1 2 0.00000000 0.00000000 0.24527477 3.35542180e-03
2 2 0.00000000 0.00000000 -0.24472523 -3.35542180e-03
3 2 0.00000000 1.21000000 0.24527477 3.41686920e-03
4 2 0.00000000 1.21000000 -0.24472523 -3.41686920e-03
5 1 25.29345177 -0.00928986 4.66878382 3.37776783e-03
6 1 25.41534961 -0.00227425 4.19422706 -3.37776783e-03
7 1 25.29014861 1.20060358 4.68573716 3.41686920e-03
8 1 25.41204872 1.20755413 4.21118138 -3.41686920e-03
9 2 0.00000000 0.00000000 -0.12222523 0.00000000e+00
10 2 0.00000000 0.00000000 0.00027477 0.00000000e+00
11 2 0.00000000 0.00000000 0.12277477 0.00000000e+00
12 2 0.00000000 0.12100000 0.24527477 5.18139194e-03
13 2 0.00000000 0.24200000 0.24527477 5.50362000e-03
14 2 0.00000000 0.36300000 0.24527477 5.01501884e-03
15 2 0.00000000 0.48400000 0.24527477 5.50904170e-03
16 2 0.00000000 0.60500000 0.24527477 6.02408537e-03
17 2 0.00000000 0.72600000 0.24527477 6.86123120e-03
18 2 0.00000000 0.84700000 0.24527477 6.83241897e-03
19 2 0.00000000 0.96800000 0.24527477 5.84994208e-03
20 2 0.00000000 1.08900000 0.24527477 4.96878236e-03
21 2 0.00000000 1.21000000 -0.12222523 0.00000000e+00
22 2 0.00000000 1.21000000 0.00027477 0.00000000e+00
23 2 0.00000000 1.21000000 0.12277477 0.00000000e+00
24 2 0.00000000 0.12100000 -0.24472523 -5.18139194e-03
25 2 0.00000000 0.24200000 -0.24472523 -5.50362000e-03
26 2 0.00000000 0.36300000 -0.24472523 -5.01501884e-03
27 2 0.00000000 0.48400000 -0.24472523 -5.50904170e-03
28 2 0.00000000 0.60500000 -0.24472523 -6.02408537e-03
29 2 0.00000000 0.72600000 -0.24472523 -6.86123120e-03
30 2 0.00000000 0.84700000 -0.24472523 -6.83241897e-03
31 2 0.00000000 0.96800000 -0.24472523 -5.84994208e-03
32 2 0.00000000 1.08900000 -0.24472523 -4.96878236e-03
33 1 25.38487216 -0.00402992 4.31286392 0.00000000e+00
34 1 25.35439946 -0.00578293 4.43150211 0.00000000e+00
35 1 25.32392706 -0.00753544 4.55014249 0.00000000e+00
36 1 25.29312293 0.11169638 4.67048701 5.05002864e-03
37 1 25.29278857 0.23268648 4.67218888 5.64089052e-03
38 1 25.29245665 0.35367494 4.67389110 5.44128437e-03
39 1 25.29212726 0.47466551 4.67558827 6.40224548e-03
40 1 25.29179805 0.59565681 4.67728880 6.88148315e-03
41 1 25.29146725 0.71664680 4.67898209 6.11583422e-03
42 1 25.29113746 0.83763672 4.68067301 5.69198232e-03
43 1 25.29080806 0.95862537 4.68236277 6.01735171e-03
44 1 25.29047936 1.07961613 4.68405142 5.43527194e-03
45 1 25.38157199 1.20581764 4.32981735 0.00000000e+00
46 1 25.35109892 1.20407875 4.44845696 0.00000000e+00
47 1 25.32062658 1.20234039 4.56709647 0.00000000e+00
48 1 25.41501498 0.11870839 4.19592937 -5.05002864e-03
49 1 25.41468542 0.23969139 4.19763253 -5.64089052e-03
50 1 25.41435226 0.36067614 4.19933413 -5.44128437e-03
51 1 25.41402231 0.48165827 4.20103267 -6.40224548e-03
52 1 25.41369329 0.60264006 4.20272940 -6.88148315e-03
53 1 25.41336518 0.72362165 4.20442340 -6.11583422e-03
54 1 25.41303447 0.84460337 4.20611456 -5.69198232e-03
55 1 25.41270545 0.96558718 4.20780391 -6.01735171e-03
56 1 25.41237396 1.08657098 4.20949220 -5.43527194e-03
57 1 0.12271765 0.00093100 -0.24512926 -4.80862070e-03
58 1 0.24555987 0.00165973 -0.24493148 -5.62714142e-03
59 1 0.36842142 0.00177684 -0.24454964 -6.00619986e-03
60 1 0.49149986 0.00175965 -0.24386778 -6.09052560e-03
61 1 0.61442868 0.00180549 -0.24278868 -6.09206826e-03
62 1 0.73741657 0.00215933 -0.24137675 -5.94781856e-03
63 1 0.86034808 0.00252818 -0.23972006 -5.82025544e-03
64 1 0.98325095 0.00229713 -0.23702577 -5.95871849e-03
65 1 1.10653014 0.00236787 -0.23449049 -6.09232315e-03
66 1 1.22958387 0.00222191 -0.23168122 -6.09205550e-03
67 1 1.35248812 0.00234202 -0.22830202 -6.08598370e-03
68 1 1.47547259 0.00264805 -0.22419335 -6.07933546e-03
69 1 1.59834996 0.00270247 -0.22037332 -6.08488133e-03
70 1 1.72123105 0.00266943 -0.21591682 -6.08161608e-03
71 1 1.84403296 0.00267669 -0.21114299 -6.08881076e-03
72 1 1.96721100 0.00259339 -0.20593033 -6.09207793e-03
73 1 2.09017319 0.00267599 -0.20052546 -6.09206431e-03
74 1 2.21311423 0.00295450 -0.19448233 -6.09206920e-03
75 1 2.33599889 0.00292276 -0.18831241 -6.09206749e-03
76 1 2.45872250 0.00282333 -0.18180901 -6.09206826e-03
77 1 2.58137513 0.00282426 -0.17503734 -6.09206901e-03
78 1 2.70418832 0.00252468 -0.16802095 -6.08547783e-03
79 1 2.82687366 0.00265155 -0.16066628 -6.07797420e-03
80 1 2.94954184 0.00302897 -0.15298836 -6.08460882e-03
81 1 3.07220315 0.00284019 -0.14502898 -6.08123045e-03
82 1 3.19476826 0.00293353 -0.13666447 -6.08867780e-03
83 1 3.31727008 0.00300430 -0.12800199 -6.09206866e-03
84 1 3.43991154 0.00305059 -0.11900723 -6.09206839e-03
85 1 3.56236918 0.00287589 -0.10991760 -6.09206833e-03
86 1 3.68493498 0.00273035 -0.10039073 -6.09206826e-03
87 1 3.80756019 0.00300805 -0.09063697 -6.09206824e-03
88 1 3.92999234 0.00309157 -0.08072961 -6.09206825e-03
89 1 4.05246139 0.00286301 -0.07063278 -6.10477040e-03
90 1 4.17489387 0.00310031 -0.06021450 -6.10144793e-03
91 1 4.29712368 0.00309717 -0.04944017 -6.09206826e-03
92 1 4.41959266 0.00303598 -0.03860389 -6.08473760e-03
93 1 4.54176499 0.00302566 -0.02743658 -6.07718969e-03
94 1 4.66403990 0.00315367 -0.01592207 -6.08430762e-03
95 1 4.78624858 0.00328184 -0.00429304 -6.08084602e-03
96 1 4.90853559 0.00322088 0.00747725 -6.08857506e-03
97 1 5.03083828 0.00347250 0.01965061 -6.09439460e-03
98 1 5.15307514 0.00329959 0.03207445 -6.09360296e-03
99 1 5.27519631 0.00337763 0.04492550 -6.10212083e-03
100 1 5.39740242 0.00329611 0.05778268 -6.09455787e-03
101 1 5.51939686 0.00355435 0.07085821 -6.08457013e-03
102 1 5.64140357 0.00351095 0.08424984 -6.08334006e-03
103 1 5.76366344 0.00346895 0.09801131 -6.09025173e-03
104 1 5.88553808 0.00349563 0.11186379 -6.09206826e-03
105 1 6.00749114 0.00351022 0.12589110 -6.09206826e-03
106 1 6.12941194 0.00372414 0.14021200 -6.08838437e-03
107 1 6.25121984 0.00374523 0.15472020 -6.09329454e-03
108 1 6.37325003 0.00356757 0.16938645 -6.09400483e-03
109 1 6.49512600 0.00371624 0.18434409 -6.08872179e-03
110 1 6.61706735 0.00386407 0.19967753 -6.08812243e-03
111 1 6.73872354 0.00390367 0.21513167 -6.09206826e-03
112 1 6.86053410 0.00389990 0.23063637 -6.09206826e-03
113 1 6.98215604 0.00389642 0.24636156 -6.09206826e-03
114 1 7.10372292 0.00400687 0.26252248 -6.06302327e-03
115 1 7.22539917 0.00381152 0.27877653 -6.06302327e-03
116 1 7.34710196 0.00385712 0.29530899 -5.90236529e-03
117 1 7.46865612 0.00391368 0.31205249 -5.81608564e-03
118 1 7.59016226 0.00395084 0.32889411 -6.10035823e-03
119 1 7.71172279 0.00395147 0.34596418 -5.08741334e-03
120 1 7.83314073 0.00394684 0.36321245 -6.87719096e-03
121 1 7.95448078 0.00403900 0.38063077 -5.18694999e-03
122 1 8.07605167 0.00389875 0.39812940 -5.00655937e-03
123 1 8.19735669 0.00397402 0.41594437 -7.17602109e-03
124 1 8.31871288 0.00413700 0.43389439 -5.64123658e-03
125 1 8.44019964 0.00419305 0.45202847 -5.91249038e-03
126 1 8.56140558 0.00412308 0.47031406 -5.77202514e-03
127 1 8.68262265 0.00415620 0.48875905 -5.95689302e-03
128 1 8.80396291 0.00425802 0.50737117 -6.09206826e-03
129 1 8.92520003 0.00410730 0.52623501 -6.09206826e-03
130 1 9.04635047 0.00412846 0.54520355 -6.09206826e-03
131 1 9.16747096 0.00420106 0.56429888 -6.00199927e-03
132 1 9.28868828 0.00444982 0.58356951 -6.06987486e-03
133 1 9.40984063 0.00448204 0.60306337 -5.02835518e-03
134 1 9.53089530 0.00446383 0.62271019 -6.79157831e-03
135 1 9.65182845 0.00462782 0.64265020 -4.92113473e-03
136 1 9.77291505 0.00450596 0.66263506 -5.56259368e-03
137 1 9.89397703 0.00440869 0.68288178 -5.94323360e-03
138 1 10.01498048 0.00456634 0.70339467 -5.00637084e-03
139 1 10.13578031 0.00448561 0.72385949 -6.75640181e-03
140 1 10.25660710 0.00435492 0.74454888 -4.91035923e-03
141 1 10.37738328 0.00434930 0.76543946 -5.75765677e-03
142 1 10.49821544 0.00437901 0.78635315 -6.37465021e-03
143 1 10.61901158 0.00450851 0.80740045 -6.33172667e-03
144 1 10.73972333 0.00456157 0.82861735 -5.77695765e-03
145 1 10.86052407 0.00470936 0.84996459 -5.75602868e-03
146 1 10.98122377 0.00465563 0.87141086 -5.94989338e-03
147 1 11.10180267 0.00460487 0.89319228 -6.09206826e-03
148 1 11.22246961 0.00476552 0.91506971 -6.09206826e-03
149 1 11.34309498 0.00466160 0.93711328 -6.49862787e-03
150 1 11.46371738 0.00474060 0.95935903 -6.47806478e-03
151 1 11.58428485 0.00461273 0.98161701 -5.98398651e-03
152 1 11.70487499 0.00471261 1.00412558 -5.97118729e-03
153 1 11.82533977 0.00460984 1.02668182 -6.32827249e-03
154 1 11.94581118 0.00462538 1.04932206 -6.38296841e-03
155 1 12.06628566 0.00480396 1.07210751 -6.09206826e-03
156 1 12.18669076 0.00465868 1.09514617 -5.92176613e-03
157 1 12.30703303 0.00470253 1.11821943 -5.84196899e-03
158 1 12.42727037 0.00467289 1.14141712 -5.89327746e-03
159 1 12.54765458 0.00472040 1.16486666 -4.96011300e-03
160 1 12.66792022 0.00473603 1.18832075 -6.65158567e-03
161 1 12.78815494 0.00472742 1.21198269 -4.90989307e-03
162 1 12.90849656 0.00470890 1.23567214 -5.52395043e-03
163 1 13.02871609 0.00480894 1.25955969 -5.87068470e-03
164 1 13.14889533 0.00479683 1.28352299 -4.88602194e-03
165 1 13.26901647 0.00483038 1.30763016 -6.40279006e-03
166 1 13.38913951 0.00479900 1.33181333 -5.12407601e-03
167 1 13.50922738 0.00475035 1.35616517 -4.88216806e-03
168 1 13.62929861 0.00472658 1.38057862 -6.38017819e-03
169 1 13.74932907 0.00483931 1.40513777 -5.11373203e-03
170 1 13.86933716 0.00477395 1.42982349 -4.85398664e-03
171 1 13.98936118 0.00474648 1.45461017 -6.35577596e-03
172 1 14.10926349 0.00482395 1.47955577 -5.10698016e-03
173 1 14.22925217 0.00470399 1.50452752 -4.85870271e-03
174 1 14.34913804 0.00470590 1.52974292 -6.37702085e-03
175 1 14.46903664 0.00459675 1.55491780 -5.10092274e-03
176 1 14.58889310 0.00463755 1.58023731 -4.84968636e-03
177 1 14.70869426 0.00466647 1.60568533 -6.37599125e-03
178 1 14.82855211 0.00465336 1.63121727 -4.87710407e-03
179 1 14.94838673 0.00465244 1.65689454 -5.56677439e-03
180 1 15.06818918 0.00453765 1.68261792 -5.93477518e-03
181 1 15.18794698 0.00460162 1.70849194 -6.09206826e-03
182 1 15.30769085 0.00453614 1.73443346 -6.09206826e-03
183 1 15.42738456 0.00456330 1.76047729 -5.98211588e-03
184 1 15.54702564 0.00452085 1.78663396 -5.88223740e-03
185 1 15.66668414 0.00452396 1.81294373 -5.93479953e-03
186 1 15.78633412 0.00434302 1.83934289 -4.77734034e-03
187 1 15.90588897 0.00433652 1.86579802 -6.31776323e-03
188 1 16.02546627 0.00436736 1.89232465 -4.85845554e-03
189 1 16.14506191 0.00436528 1.91900834 -5.48045656e-03
190 1 16.26459316 0.00429535 1.94575597 -5.74774533e-03
191 1 16.38404239 0.00420921 1.97261476 -5.91938606e-03
192 1 16.50355643 0.00412883 1.99963312 -4.72601755e-03
193 1 16.62303652 0.00413309 2.02668911 -6.44309587e-03
194 1 16.74241503 0.00408689 2.05379004 -5.21392668e-03
195 1 16.86182813 0.00402916 2.08092710 -4.32492230e-03
196 1 16.98124261 0.00398284 2.10820145 -6.11554878e-03
197 1 17.10058107 0.00393255 2.13559695 -5.20526136e-03
198 1 17.22000366 0.00390202 2.16306855 -4.31230685e-03
199 1 17.33929037 0.00385659 2.19055117 -6.11716232e-03
200 1 17.45855079 0.00388337 2.21820879 -5.69773107e-03
201 1 17.57785566 0.00374457 2.24590081 -5.99314584e-03
202 1 17.69715001 0.00373781 2.27370101 -4.76350900e-03
203 1 17.81636374 0.00363782 2.30163533 -5.21120302e-03
204 1 17.93560911 0.00359048 2.32955391 -6.01204532e-03
205 1 18.05476880 0.00351223 2.35755415 -5.73233737e-03
206 1 18.17397515 0.00339462 2.38566082 -5.81943467e-03
207 1 18.29308580 0.00336762 2.41383588 -6.32655047e-03
208 1 18.41228631 0.00328175 2.44210636 -5.03614005e-03
209 1 18.53139430 0.00321290 2.47036208 -4.70280803e-03
210 1 18.65045050 0.00314374 2.49877716 -8.65683464e-03
211 1 18.76955165 0.00312088 2.52721307 -5.94692004e-03
212 1 18.88856054 0.00303642 2.55578503 -5.65885778e-03
213 1 19.00765789 0.00295845 2.58434400 -5.99277035e-03
214 1 19.12665773 0.00283571 2.61303179 -6.04066598e-03
215 1 19.24562722 0.00272920 2.64174088 -6.09206826e-03
216 1 19.36465865 0.00275139 2.67056962 -6.09206826e-03
217 1 19.48358470 0.00267881 2.69940278 -6.09206826e-03
218 1 19.60255880 0.00253882 2.72829118 -5.94140402e-03
219 1 19.72148200 0.00243309 2.75724746 -6.09135703e-03
220 1 19.84038980 0.00237411 2.78626592 -6.09135703e-03
221 1 19.95932259 0.00229711 2.81534165 -6.09206826e-03
222 1 20.07820488 0.00220846 2.84446747 -6.22362401e-03
223 1 20.19703392 0.00217665 2.87365513 -6.30618064e-03
224 1 20.31590250 0.00205723 2.90288739 -6.16079228e-03
225 1 20.43474311 0.00194369 2.93215383 -6.90076158e-03
226 1 20.55354844 0.00186687 2.96147640 -7.19612184e-03
227 1 20.67237555 0.00178570 2.99084636 -6.17999120e-03
228 1 20.79117393 0.00173062 3.02027700 -5.85545161e-03
229 1 20.90994850 0.00163326 3.04974641 -6.04373412e-03
230 1 21.02873093 0.00157779 3.07929755 -6.05837687e-03
231 1 21.14749934 0.00145756 3.10887847 -6.22625934e-03
232 1 21.26621811 0.00134424 3.13849283 -6.96326852e-03
233 1 21.38496521 0.00125364 3.16813996 -6.60839364e-03
234 1 21.50365142 0.00117961 3.19786798 -6.08325267e-03
235 1 21.62232896 0.00107879 3.22765000 -5.98999100e-03
236 1 21.74102051 0.00099927 3.25744553 -6.02220795e-03
237 1 21.85969074 0.00087006 3.28729079 -5.94934321e-03
238 1 21.97834491 0.00076363 3.31716778 -6.23085673e-03
239 1 22.09696679 0.00067181 3.34706536 -5.91383044e-03
240 1 22.21562332 0.00059186 3.37701052 -5.82022831e-03
241 1 22.33423679 0.00047469 3.40697347 -6.06616825e-03
242 1 22.45286054 0.00034089 3.43700493 -6.09206826e-03
243 1 22.57143835 0.00025194 3.46704707 -6.22108889e-03
244 1 22.69002759 0.00019391 3.49710452 -6.93510095e-03
245 1 22.80859287 0.00009432 3.52721458 -6.55067958e-03
246 1 22.92718385 -0.00002517 3.55732902 -5.44215936e-03
247 1 23.04572157 -0.00011543 3.58747518 -5.52453627e-03
248 1 23.16428385 -0.00019545 3.61765719 -6.11677386e-03
249 1 23.28280541 -0.00030726 3.64784948 -5.40422112e-03
250 1 23.40134590 -0.00043440 3.67808100 -5.51625079e-03
251 1 23.51987508 -0.00054576 3.70833944 -6.10817079e-03
252 1 23.63838719 -0.00065664 3.73861452 -5.39058303e-03
253 1 23.75689045 -0.00075761 3.76890909 -5.51111698e-03
254 1 23.87539987 -0.00087953 3.79921495 -6.09959331e-03
255 1 23.99388793 -0.00099056 3.82953301 -5.37708140e-03
256 1 24.11237425 -0.00107103 3.85987713 -5.50601994e-03
257 1 24.23085375 -0.00118549 3.89021885 -6.09132348e-03
258 1 24.34932567 -0.00130389 3.92058397 -5.36406280e-03
259 1 24.46779090 -0.00140613 3.95096732 -5.50114066e-03
260 1 24.58624333 -0.00151693 3.98135414 -6.07613573e-03
261 1 24.70469983 -0.00162391 4.01175035 -5.86576563e-03
262 1 24.82315036 -0.00173860 4.04215139 -5.87763703e-03
263 1 24.94160241 -0.00184538 4.07255866 -5.79509293e-03
264 1 25.06004279 -0.00195310 4.10297161 -6.45795830e-03
265 1 25.17848377 -0.00206401 4.13338852 -6.36067877e-03
266 1 25.29691841 -0.00217178 4.16380568 -5.01672083e-03
267 1 0.12195174 -0.00070074 0.24480588 4.80862070e-03
268 1 0.24381249 -0.00134378 0.24481058 5.62714142e-03
269 1 0.36564016 -0.00136892 0.24506133 6.00619986e-03
270 1 0.48739743 -0.00147128 0.24607608 6.09052560e-03
271 1 0.60880882 -0.00191783 0.24717875 6.09206826e-03
272 1 0.73056972 -0.00214242 0.24851141 5.94781856e-03
273 1 0.85227630 -0.00222579 0.25049022 5.82025544e-03
274 1 0.97367616 -0.00186634 0.25255770 5.95871849e-03
275 1 1.09512054 -0.00185366 0.25522251 6.09232315e-03
276 1 1.21674235 -0.00195175 0.25841393 6.09205550e-03
277 1 1.33829922 -0.00177645 0.26155401 6.08598370e-03
278 1 1.45998247 -0.00195972 0.26505391 6.07933546e-03
279 1 1.58168583 -0.00206793 0.26917878 6.08488133e-03
280 1 1.70298775 -0.00206217 0.27348987 6.08161608e-03
281 1 1.82458877 -0.00224228 0.27833030 6.08881076e-03
282 1 1.94629415 -0.00237081 0.28346207 6.09207793e-03
283 1 2.06739395 -0.00223365 0.28873853 6.09206431e-03
284 1 2.18909627 -0.00192357 0.29445020 6.09206920e-03
285 1 2.31064317 -0.00202861 0.30071543 6.09206749e-03
286 1 2.43225334 -0.00199994 0.30726659 6.09206826e-03
287 1 2.55382215 -0.00192195 0.31386012 6.09206901e-03
288 1 2.67547788 -0.00206987 0.32112210 6.08547783e-03
289 1 2.79686166 -0.00201237 0.32831576 6.07797420e-03
290 1 2.91831626 -0.00192274 0.33599566 6.08460882e-03
291 1 3.03986979 -0.00172655 0.34387424 6.08123045e-03
292 1 3.16143153 -0.00167784 0.35225908 6.08867780e-03
293 1 3.28270897 -0.00171884 0.36067622 6.09206866e-03
294 1 3.40414394 -0.00191697 0.36941440 6.09206839e-03
295 1 3.52556287 -0.00170624 0.37856258 6.09206833e-03
296 1 3.64700574 -0.00174529 0.38796621 6.09206826e-03
297 1 3.76855510 -0.00179629 0.39762023 6.09206824e-03
298 1 3.88983164 -0.00189137 0.40744244 6.09206825e-03
299 1 4.01120349 -0.00185290 0.41763042 6.10477040e-03
300 1 4.13241395 -0.00170397 0.42794831 6.10144793e-03
301 1 4.25391772 -0.00166703 0.43855816 6.09206826e-03
302 1 4.37534392 -0.00163884 0.44940862 6.08473760e-03
303 1 4.49673620 -0.00182164 0.46027524 6.07718969e-03
304 1 4.61814307 -0.00204619 0.47155853 6.08430762e-03
305 1 4.73938350 -0.00164013 0.48321131 6.08084602e-03
306 1 4.86060142 -0.00170629 0.49502393 6.08857506e-03
307 1 4.98180903 -0.00184180 0.50717094 6.09439460e-03
308 1 5.10303916 -0.00193190 0.51954049 6.09360296e-03
309 1 5.22417651 -0.00162577 0.53200232 6.10212083e-03
310 1 5.34520564 -0.00172638 0.54481510 6.09455787e-03
311 1 5.46640707 -0.00173445 0.55787292 6.08457013e-03
312 1 5.58759175 -0.00165905 0.57114981 6.08334006e-03
313 1 5.70863582 -0.00165204 0.58459896 6.09025173e-03
314 1 5.82974807 -0.00177193 0.59832592 6.09206826e-03
315 1 5.95098459 -0.00183348 0.61233974 6.09206826e-03
316 1 6.07199294 -0.00177457 0.62649464 6.08838437e-03
317 1 6.19293851 -0.00161768 0.64105822 6.09329454e-03
318 1 6.31378296 -0.00195317 0.65577098 6.09400483e-03
319 1 6.43484050 -0.00194082 0.67059618 6.08872179e-03
320 1 6.55589104 -0.00190051 0.68561103 6.08812243e-03
321 1 6.67673136 -0.00177515 0.70074291 6.09206826e-03
322 1 6.79765200 -0.00180996 0.71633951 6.09206826e-03
323 1 6.91858150 -0.00165569 0.73219860 6.09206826e-03
324 1 7.03934634 -0.00170413 0.74815798 6.06302327e-03
325 1 7.16012878 -0.00161217 0.76433944 6.06302327e-03
326 1 7.28088958 -0.00160296 0.78068133 5.90236529e-03
327 1 7.40174650 -0.00152919 0.79730454 5.81608564e-03
328 1 7.52258833 -0.00138363 0.81409962 6.10035823e-03
329 1 7.64325227 -0.00152978 0.83109722 5.08741347e-03
330 1 7.76417683 -0.00156358 0.84810448 6.88423117e-03
331 1 7.88483629 -0.00146224 0.86556094 4.95164977e-03
332 1 8.00536264 -0.00144130 0.88289823 5.63292633e-03
333 1 8.12604838 -0.00153281 0.90061621 5.95654755e-03
334 1 8.24673228 -0.00153458 0.91844508 6.00432988e-03
335 1 8.36736695 -0.00145191 0.93643838 6.08757506e-03
336 1 8.48796232 -0.00143517 0.95466125 5.05700823e-03
337 1 8.60858639 -0.00156673 0.97296797 6.83715280e-03
338 1 8.72912562 -0.00146946 0.99141505 4.93632937e-03
339 1 8.84973536 -0.00158778 1.01020429 5.62467055e-03
340 1 8.97018498 -0.00170556 1.02902802 5.95386311e-03
341 1 9.09055947 -0.00167502 1.04810826 6.00199927e-03
342 1 9.21108969 -0.00168687 1.06735703 6.06987486e-03
343 1 9.33134790 -0.00173027 1.08673478 5.01509653e-03
344 1 9.45186252 -0.00166200 1.10622345 6.78511241e-03
345 1 9.57221858 -0.00172785 1.12593904 4.92113473e-03
346 1 9.69257500 -0.00178350 1.14595598 5.61645056e-03
347 1 9.81281668 -0.00165235 1.16609095 5.95118153e-03
348 1 9.93311267 -0.00171123 1.18630232 6.09206826e-03
349 1 10.05329009 -0.00166728 1.20681950 6.09206826e-03
350 1 10.17354435 -0.00170088 1.22733594 6.09206826e-03
351 1 10.29386115 -0.00165133 1.24808571 6.50085567e-03
352 1 10.41409660 -0.00166065 1.26890929 6.38496347e-03
353 1 10.53438186 -0.00168684 1.28988016 5.77251663e-03
354 1 10.65447063 -0.00172497 1.31101023 5.73476969e-03
355 1 10.77469701 -0.00176533 1.33228788 5.94888879e-03
356 1 10.89482369 -0.00193923 1.35369994 6.09206826e-03
357 1 11.01487217 -0.00181785 1.37526734 6.09206826e-03
358 1 11.13496036 -0.00187483 1.39705002 6.09206826e-03
359 1 11.25496309 -0.00197536 1.41893815 6.09206826e-03
360 1 11.37483579 -0.00190104 1.44107841 4.98457375e-03
361 1 11.49491267 -0.00185061 1.46329878 6.69756871e-03
362 1 11.61494445 -0.00180000 1.48565521 5.15375987e-03
363 1 11.73480362 -0.00183457 1.50807784 4.95985007e-03
364 1 11.85470839 -0.00186390 1.53061931 6.48212442e-03
365 1 11.97468208 -0.00193773 1.55342553 5.14927068e-03
366 1 12.09454280 -0.00186684 1.57625905 4.95341033e-03
367 1 12.21437411 -0.00205854 1.59932175 6.46347279e-03
368 1 12.33415033 -0.00189336 1.62239127 5.14043101e-03
369 1 12.45388757 -0.00202812 1.64569272 4.91020010e-03
370 1 12.57378455 -0.00197486 1.66905809 6.45556760e-03
371 1 12.69359917 -0.00199099 1.69259393 4.90989307e-03
372 1 12.81335082 -0.00206593 1.71625901 5.52395043e-03
373 1 12.93306289 -0.00201042 1.74001799 5.87068470e-03
374 1 13.05268872 -0.00201369 1.76393768 4.87920209e-03
375 1 13.17238731 -0.00208237 1.78792510 6.41661913e-03
376 1 13.29202780 -0.00208850 1.81205293 4.89988333e-03
377 1 13.41169471 -0.00205103 1.83624250 5.51681014e-03
378 1 13.53132832 -0.00205654 1.86060327 5.85936171e-03
379 1 13.65083328 -0.00212570 1.88511922 4.85938456e-03
380 1 13.77037594 -0.00211320 1.90964049 6.38254444e-03
381 1 13.88999245 -0.00222421 1.93429573 4.88995824e-03
382 1 14.00952901 -0.00224213 1.95915443 5.57476230e-03
383 1 14.12900519 -0.00212494 1.98409810 5.93743790e-03
384 1 14.24844540 -0.00232811 2.00910590 5.98766457e-03
385 1 14.36791027 -0.00233398 2.03419265 5.96043235e-03
386 1 14.48733287 -0.00228753 2.05949956 4.81637844e-03
387 1 14.60680679 -0.00236218 2.08492903 6.34214196e-03
388 1 14.72624272 -0.00235532 2.11032378 4.87620659e-03
389 1 14.84562256 -0.00237473 2.13585526 5.56677439e-03
390 1 14.96499590 -0.00248674 2.16147712 5.93477518e-03
391 1 15.08428338 -0.00252632 2.18724877 5.98532808e-03
392 1 15.20360603 -0.00250655 2.21313676 5.94249673e-03
393 1 15.32286642 -0.00261485 2.23909278 4.79106117e-03
394 1 15.44213766 -0.00270582 2.26520562 6.34873408e-03
395 1 15.56132781 -0.00258359 2.29139732 5.10720957e-03
396 1 15.68052559 -0.00274117 2.31771505 4.79385489e-03
397 1 15.79975807 -0.00284214 2.34406461 6.33054845e-03
398 1 15.91900457 -0.00293804 2.37059607 5.10009402e-03
399 1 16.03809050 -0.00296679 2.39712189 4.78369059e-03
400 1 16.15732654 -0.00293202 2.42378780 6.31203828e-03
401 1 16.27647280 -0.00300206 2.45053797 5.09300092e-03
402 1 16.39550966 -0.00301997 2.47738045 4.74903927e-03
403 1 16.51459238 -0.00307930 2.50440058 6.32830758e-03
404 1 16.63375597 -0.00311140 2.53140532 5.08343922e-03
405 1 16.75283015 -0.00318161 2.55860070 4.32591159e-03
406 1 16.87185073 -0.00331706 2.58578228 6.00104739e-03
407 1 16.99090717 -0.00327193 2.61310289 5.21119202e-03
408 1 17.10982294 -0.00341647 2.64043864 6.09206826e-03
409 1 17.22886403 -0.00350053 2.66789735 6.05153388e-03
410 1 17.34779258 -0.00351064 2.69542478 5.91774538e-03
411 1 17.46679291 -0.00360297 2.72303518 6.22305381e-03
412 1 17.58574605 -0.00362044 2.75079853 5.03791106e-03
413 1 17.70464944 -0.00371458 2.77861637 4.72607940e-03
414 1 17.82359890 -0.00373794 2.80648654 8.71836332e-03
415 1 17.94249780 -0.00386112 2.83444339 5.95355142e-03
416 1 18.06138028 -0.00388530 2.86245176 5.36960420e-03
417 1 18.18024758 -0.00406139 2.89054830 6.03255871e-03
418 1 18.29908367 -0.00410413 2.91869386 5.00245570e-03
419 1 18.41785577 -0.00419957 2.94691911 4.70280803e-03
420 1 18.53667694 -0.00419330 2.97527074 8.65685956e-03
421 1 18.65546967 -0.00428063 3.00368621 5.94692135e-03
422 1 18.77429059 -0.00438769 3.03211850 5.65886656e-03
423 1 18.89307662 -0.00444361 3.06067881 5.98663784e-03
424 1 19.01177242 -0.00451443 3.08929852 6.03862808e-03
425 1 19.13051419 -0.00461825 3.11795123 6.08821513e-03
426 1 19.24928780 -0.00468176 3.14667401 6.17296108e-03
427 1 19.36803763 -0.00476649 3.17549025 6.04911048e-03
428 1 19.48673425 -0.00478210 3.20431750 6.99423467e-03
429 1 19.60543789 -0.00485590 3.23323062 6.49916941e-03
430 1 19.72413952 -0.00495912 3.26219042 6.05139015e-03
431 1 19.84277208 -0.00500832 3.29125647 6.07023001e-03
432 1 19.96144572 -0.00512612 3.32029661 6.06423220e-03
433 1 20.08010330 -0.00521787 3.34942486 6.03339671e-03
434 1 20.19877805 -0.00533418 3.37857710 6.06123277e-03
435 1 20.31738044 -0.00537254 3.40781420 6.05523286e-03
436 1 20.43599871 -0.00549571 3.43709946 6.01539697e-03
437 1 20.55463539 -0.00553483 3.46644080 6.05223237e-03
438 1 20.67325426 -0.00565668 3.49578481 6.04623034e-03
439 1 20.79179078 -0.00574065 3.52520594 5.99739088e-03
440 1 20.91039967 -0.00582776 3.55469963 6.03386113e-03
441 1 21.02898848 -0.00591476 3.58425509 6.06015229e-03
442 1 21.14751703 -0.00602495 3.61382109 6.93292310e-03
443 1 21.26602728 -0.00608175 3.64345871 6.60839364e-03
444 1 21.38455815 -0.00619102 3.67313441 6.08325267e-03
445 1 21.50308137 -0.00625506 3.70283952 5.98999100e-03
446 1 21.62161383 -0.00633997 3.73260456 6.02220795e-03
447 1 21.74012450 -0.00642527 3.76239933 5.94934321e-03
448 1 21.85862673 -0.00654804 3.79223404 6.00521256e-03
449 1 21.97713976 -0.00663084 3.82213693 5.96042100e-03
450 1 22.09560551 -0.00670732 3.85203353 6.01327673e-03
451 1 22.21410164 -0.00677582 3.88198575 6.06616825e-03
452 1 22.33257968 -0.00688453 3.91195794 6.09206826e-03
453 1 22.45105784 -0.00698432 3.94197070 6.22108889e-03
454 1 22.56953987 -0.00708092 3.97200496 6.93510095e-03
455 1 22.68800119 -0.00717151 4.00207380 6.55067958e-03
456 1 22.80643370 -0.00726866 4.03217282 5.44215936e-03
457 1 22.92489597 -0.00737713 4.06228490 5.52453627e-03
458 1 23.04335191 -0.00745407 4.09244024 6.09206826e-03
459 1 23.16179029 -0.00753929 4.12262615 5.52769247e-03
460 1 23.28023327 -0.00764535 4.15282276 5.54504444e-03
461 1 23.39867406 -0.00773402 4.18306868 6.09206826e-03
462 1 23.51708782 -0.00784022 4.21331557 5.52433613e-03
463 1 23.63553036 -0.00793434 4.24358644 5.54169116e-03
464 1 23.75395347 -0.00801054 4.27387250 6.09959331e-03
465 1 23.87237733 -0.00812027 4.30417898 5.37708140e-03
466 1 23.99080972 -0.00821530 4.33450455 5.50601994e-03
467 1 24.10923558 -0.00831277 4.36484834 6.09132348e-03
468 1 24.22764818 -0.00840839 4.39520411 5.36406280e-03
469 1 24.34607291 -0.00850519 4.42557165 5.50114066e-03
470 1 24.46448862 -0.00859744 4.45594227 6.07613573e-03
471 1 24.58291785 -0.00870015 4.48633270 5.86576563e-03
472 1 24.70133732 -0.00879393 4.51672957 5.87763704e-03
473 1 24.81975694 -0.00888895 4.54712830 5.79509293e-03
474 1 24.93817987 -0.00899083 4.57753997 6.45795830e-03
475 1 25.05660172 -0.00908850 4.60795053 6.36067877e-03
476 1 25.17502638 -0.00918691 4.63836599 5.01672083e-03
477 1 0.12263312 1.20923147 -0.24468191 -5.06599779e-03
478 1 0.24532003 1.20892390 -0.24473881 -5.96099493e-03
479 1 0.36830745 1.20834977 -0.24414613 -6.06828787e-03
480 1 0.49132625 1.20850694 -0.24335062 -6.09081051e-03
481 1 0.61427182 1.20847791 -0.24200882 -6.09597885e-03
482 1 0.73720766 1.20855713 -0.24044883 -6.09677124e-03
483 1 0.86047769 1.20823305 -0.23835074 -6.09261604e-03
484 1 0.98350339 1.20845182 -0.23601040 -6.09210769e-03
485 1 1.10671146 1.20821137 -0.23290804 -6.09159289e-03
486 1 1.22957925 1.20824238 -0.22971322 -6.09258964e-03
487 1 1.35258344 1.20880695 -0.22644742 -6.11404233e-03
488 1 1.47545944 1.20887801 -0.22247961 -6.12924398e-03
489 1 1.59823545 1.20850431 -0.21828702 -6.13810471e-03
490 1 1.72110794 1.20856061 -0.21389633 -6.10740278e-03
491 1 1.84409644 1.20847883 -0.20898163 -6.11299929e-03
492 1 1.96706203 1.20857358 -0.20337671 -6.11651709e-03
493 1 2.08988168 1.20842022 -0.19812744 -6.10892752e-03
494 1 2.21276181 1.20891450 -0.19220136 -6.08383817e-03
495 1 2.33569620 1.20911585 -0.18585755 -6.07811671e-03
496 1 2.45838407 1.20897980 -0.17906938 -6.12167487e-03
497 1 2.58100713 1.20876671 -0.17224337 -6.12891596e-03
498 1 2.70377485 1.20904557 -0.16517159 -6.13439434e-03
499 1 2.82663381 1.20925926 -0.15749465 -6.11877956e-03
500 1 2.94933534 1.20902176 -0.14962044 -6.09486572e-03
501 1 3.07196943 1.20927025 -0.14149038 -6.09206826e-03
502 1 3.19481097 1.20925674 -0.13302159 -6.09206855e-03
503 1 3.31736249 1.20924530 -0.12418698 -6.09206932e-03
504 1 3.43969829 1.20933729 -0.11512435 -6.11378764e-03
505 1 3.56259319 1.20974306 -0.10584581 -6.10132488e-03
506 1 3.68488738 1.20984870 -0.09619823 -6.14015253e-03
507 1 3.80729715 1.20971051 -0.08646546 -6.18862768e-03
508 1 3.92959457 1.20995254 -0.07612532 -6.20494803e-03
509 1 4.05195679 1.20995768 -0.06594503 -6.16689241e-03
510 1 4.17420589 1.20996977 -0.05525947 -6.13536340e-03
511 1 4.29654714 1.20993850 -0.04451652 -6.09206826e-03
512 1 4.41879410 1.20992849 -0.03349999 -6.09528258e-03
513 1 4.54115923 1.21014995 -0.02233344 -6.10197805e-03
514 1 4.66356706 1.21006294 -0.01086229 -6.09705471e-03
515 1 4.78574022 1.21020140 0.00094045 -6.06436498e-03
516 1 4.90810491 1.21004170 0.01313201 -6.12133674e-03
517 1 5.03016165 1.21021530 0.02534854 -6.20974613e-03
518 1 5.15231718 1.21038581 0.03787280 -6.24802334e-03
519 1 5.27433998 1.21047250 0.05069255 -6.19819175e-03
520 1 5.39654296 1.21022250 0.06373268 -6.15088270e-03
521 1 5.51873255 1.21031859 0.07701227 -6.13301438e-03
522 1 5.64071318 1.21060002 0.09053014 -6.10131989e-03
523 1 5.76285306 1.21058555 0.10429578 -6.05757291e-03
524 1 5.88481384 1.21077016 0.11827817 -6.04491082e-03
525 1 6.00662944 1.21071902 0.13265946 -6.05437557e-03
526 1 6.12864732 1.21095852 0.14705377 -6.06489385e-03
527 1 6.25044260 1.21108347 0.16169273 -6.09206826e-03
528 1 6.37227518 1.21121700 0.17662319 -6.09206826e-03
529 1 6.49412522 1.21102442 0.19177856 -6.09979510e-03
530 1 6.61583889 1.21109978 0.20715205 -6.12512692e-03
531 1 6.73761790 1.21129853 0.22267242 -6.16578501e-03
532 1 6.85935992 1.21116821 0.23860321 -6.26929389e-03
533 1 6.98089015 1.21123391 0.25450326 -6.28695529e-03
534 1 7.10267811 1.21149890 0.27048494 -6.28583704e-03
535 1 7.22427795 1.21141153 0.28683213 -6.23881179e-03
536 1 7.34598984 1.21147780 0.30344530 -6.30184580e-03
537 1 7.46751277 1.21157645 0.32022520 -6.28022129e-03