ITEM: TIMESTEP
0
ITEM: NUMBER OF ATOMS
10710
ITEM: BOX BOUNDS ff ff ff
-2.0 27.802778288815546
-2.0013582244559793 3.2103128622376502
-2.2447749692305035 2.9991707268650583
ITEM: ATOMS id type x y z q
1 2 0.00000000 0.00000000 0.24527477 3.35542180e-03
2 2 0.00000000 0.00000000 -0.24472523 -3.35542180e-03
3 2 0.00000000 1.21000000 0.24527477 3.41686920e-03
4 2 0.00000000 1.21000000 -0.24472523 -3.41686920e-03
5 1 25.78167499 -0.00135822 0.99618048 3.37776783e-03
6 1 25.80277829 -0.00014138 0.50663672 -3.37776783e-03
7 1 25.78164475 1.20864378 0.99917073 3.41686920e-03
8 1 25.80274881 1.20984755 0.50962711 -3.41686920e-03
9 2 0.00000000 0.00000000 -0.12222523 0.00000000e+00
10 2 0.00000000 0.00000000 0.00027477 0.00000000e+00
11 2 0.00000000 0.00000000 0.12277477 0.00000000e+00
12 2 0.00000000 0.12100000 0.24527477 5.18139194e-03
13 2 0.00000000 0.24200000 0.24527477 5.50362000e-03
14 2 0.00000000 0.36300000 0.24527477 5.01501884e-03
15 2 0.00000000 0.48400000 0.24527477 5.50904170e-03
16 2 0.00000000 0.60500000 0.24527477 6.02408537e-03
17 2 0.00000000 0.72600000 0.24527477 6.86123120e-03
18 2 0.00000000 0.84700000 0.24527477 6.83241897e-03
19 2 0.00000000 0.96800000 0.24527477 5.84994208e-03
20 2 0.00000000 1.08900000 0.24527477 4.96878236e-03
21 2 0.00000000 1.21000000 -0.12222523 0.00000000e+00
22 2 0.00000000 1.21000000 0.00027477 0.00000000e+00
23 2 0.00000000 1.21000000 0.12277477 0.00000000e+00
24 2 0.00000000 0.12100000 -0.24472523 -5.18139194e-03
25 2 0.00000000 0.24200000 -0.24472523 -5.50362000e-03
26 2 0.00000000 0.36300000 -0.24472523 -5.01501884e-03
27 2 0.00000000 0.48400000 -0.24472523 -5.50904170e-03
28 2 0.00000000 0.60500000 -0.24472523 -6.02408537e-03
29 2 0.00000000 0.72600000 -0.24472523 -6.86123120e-03
30 2 0.00000000 0.84700000 -0.24472523 -6.83241897e-03
31 2 0.00000000 0.96800000 -0.24472523 -5.84994208e-03
32 2 0.00000000 1.08900000 -0.24472523 -4.96878236e-03
33 1 25.79750198 -0.00044589 0.62902225 0.00000000e+00
34 1 25.79222652 -0.00074993 0.75140800 0.00000000e+00
35 1 25.78695104 -0.00105396 0.87379415 0.00000000e+00
36 1 25.78167289 0.11964135 0.99648102 5.05002864e-03
37 1 25.78166985 0.24064166 0.99678146 5.64089052e-03
38 1 25.78166704 0.36164173 0.99708191 5.44128437e-03
39 1 25.78166429 0.48264224 0.99738128 6.40224548e-03
40 1 25.78166170 0.60364280 0.99768123 6.88148315e-03
41 1 25.78165853 0.72464310 0.99798007 6.11583422e-03
42 1 25.78165529 0.84564339 0.99827809 5.69198232e-03
43 1 25.78165201 0.96664343 0.99857588 6.01735171e-03
44 1 25.78164861 1.08764392 0.99887354 5.43527194e-03
45 1 25.79747253 1.20954677 0.63201247 0.00000000e+00
46 1 25.79219691 1.20924557 0.75439850 0.00000000e+00
47 1 25.78692136 1.20894456 0.87678444 0.00000000e+00
48 1 25.80277515 0.12085750 0.50693713 -5.05002864e-03
49 1 25.80277299 0.24185646 0.50723765 -5.64089052e-03
50 1 25.80277005 0.36285574 0.50753808 -5.44128437e-03
51 1 25.80276733 0.48385457 0.50783785 -6.40224548e-03
52 1 25.80276461 0.60485323 0.50813715 -6.88148315e-03
53 1 25.80276198 0.72585185 0.50843571 -6.11583422e-03
54 1 25.80275855 0.84685044 0.50873401 -5.69198232e-03
55 1 25.80275532 0.96784943 0.50903175 -6.01735171e-03
56 1 25.80275138 1.08884855 0.50932940 -5.43527194e-03
57 1 0.12237436 0.00018796 -0.24477497 -4.80862070e-03
58 1 0.24476541 0.00034223 -0.24473308 -5.62714142e-03
59 1 0.36716552 0.00037855 -0.24466728 -6.00619986e-03
60 1 0.48959981 0.00038711 -0.24456140 -6.09052560e-03
61 1 0.61201409 0.00040082 -0.24439012 -6.09206826e-03
62 1 0.73444133 0.00045823 -0.24417304 -5.94781856e-03
63 1 0.85686255 0.00051834 -0.24391199 -5.82025544e-03
64 1 0.97927818 0.00047845 -0.24347470 -5.95871849e-03
65 1 1.10175512 0.00049040 -0.24306933 -6.09232315e-03
66 1 1.22419454 0.00046447 -0.24262329 -6.09205550e-03
67 1 1.34660927 0.00047930 -0.24208656 -6.08598370e-03
68 1 1.46904520 0.00052727 -0.24143006 -6.07933546e-03
69 1 1.59146416 0.00053105 -0.24082242 -6.08488133e-03
70 1 1.71388442 0.00052435 -0.24010318 -6.08161608e-03
71 1 1.83629583 0.00052472 -0.23933685 -6.08881076e-03
72 1 1.95876910 0.00050801 -0.23849875 -6.09207793e-03
73 1 2.08120805 0.00051579 -0.23762682 -6.09206431e-03
74 1 2.20365039 0.00055969 -0.23665253 -6.09206920e-03
75 1 2.32608234 0.00055095 -0.23565636 -6.09206749e-03
76 1 2.44848866 0.00053503 -0.23460744 -6.09206826e-03
77 1 2.57088531 0.00053007 -0.23351689 -6.09206901e-03
78 1 2.69331417 0.00047316 -0.23238602 -6.08547783e-03
79 1 2.81572738 0.00049113 -0.23120010 -6.07797420e-03
80 1 2.93813520 0.00055332 -0.22995618 -6.08460882e-03
81 1 3.06054474 0.00052015 -0.22866578 -6.08123045e-03
82 1 3.18294101 0.00053154 -0.22731576 -6.08867780e-03
83 1 3.30533090 0.00053836 -0.22591490 -6.09206866e-03
84 1 3.42774424 0.00054385 -0.22445866 -6.09206839e-03
85 1 3.55012901 0.00051023 -0.22298297 -6.09206833e-03
86 1 3.67253549 0.00047995 -0.22143737 -6.09206826e-03
87 1 3.79495895 0.00051907 -0.21985920 -6.09206824e-03
88 1 3.91734863 0.00052960 -0.21825160 -6.09206825e-03
89 1 4.03974937 0.00049050 -0.21661278 -6.10477040e-03
90 1 4.16214637 0.00053187 -0.21492437 -6.10144793e-03
91 1 4.28451266 0.00053176 -0.21317202 -6.09206826e-03
92 1 4.40692051 0.00051946 -0.21141160 -6.08473760e-03
93 1 4.52928448 0.00051107 -0.20959539 -6.07718969e-03
94 1 4.65166593 0.00053049 -0.20771880 -6.08430762e-03
95 1 4.77404093 0.00054845 -0.20582256 -6.08084602e-03
96 1 4.89643314 0.00053377 -0.20390121 -6.08857506e-03
97 1 5.01882982 0.00056792 -0.20191754 -6.09439460e-03
98 1 5.14121988 0.00053457 -0.19988808 -6.09360296e-03
99 1 5.26359831 0.00054351 -0.19778611 -6.10212083e-03
100 1 5.38598738 0.00052387 -0.19568570 -6.09455787e-03
101 1 5.50834322 0.00056545 -0.19355159 -6.08457013e-03
102 1 5.63070362 0.00055936 -0.19136468 -6.08334006e-03
103 1 5.75311664 0.00055035 -0.18912037 -6.09025173e-03
104 1 5.87546382 0.00055188 -0.18685257 -6.09206826e-03
105 1 5.99782890 0.00055254 -0.18455618 -6.09206826e-03
106 1 6.12019293 0.00058353 -0.18220978 -6.08838437e-03
107 1 6.24253948 0.00058314 -0.17982800 -6.09329454e-03
108 1 6.36492468 0.00054810 -0.17742611 -6.09400483e-03
109 1 6.48729376 0.00056990 -0.17497493 -6.08872179e-03
110 1 6.60967668 0.00058813 -0.17246053 -6.08812243e-03
111 1 6.73201228 0.00059373 -0.16992461 -6.09206826e-03
112 1 6.85437806 0.00059413 -0.16738518 -6.09206826e-03
113 1 6.97671502 0.00058917 -0.16480192 -6.09206826e-03
114 1 7.09905082 0.00060643 -0.16214212 -6.06302327e-03
115 1 7.22140634 0.00057001 -0.15946850 -6.06302327e-03
116 1 7.34377264 0.00057266 -0.15674783 -5.90236529e-03
117 1 7.46611510 0.00058052 -0.15398993 -5.81608564e-03
118 1 7.58845168 0.00058123 -0.15121926 -6.10035823e-03
119 1 7.71080501 0.00057909 -0.14841143 -5.08741334e-03
120 1 7.83313698 0.00057847 -0.14557228 -6.87719096e-03
121 1 7.95545775 0.00059808 -0.14270284 -5.18694999e-03
122 1 8.07782237 0.00056772 -0.13982258 -5.00655937e-03
123 1 8.20014806 0.00057581 -0.13687372 -7.17602109e-03
124 1 8.32248128 0.00060265 -0.13391105 -5.64123658e-03
125 1 8.44484080 0.00061216 -0.13092262 -5.91249038e-03
126 1 8.56715171 0.00059777 -0.12789820 -5.77202514e-03
127 1 8.68946932 0.00060402 -0.12484791 -5.95689302e-03
128 1 8.81181421 0.00061767 -0.12177353 -6.09206826e-03
129 1 8.93415064 0.00058810 -0.11865360 -6.09206826e-03
130 1 9.05647335 0.00058936 -0.11551146 -6.09206826e-03
131 1 9.17879091 0.00060013 -0.11234646 -6.00199927e-03
132 1 9.30112833 0.00064284 -0.10915594 -6.06987486e-03
133 1 9.42346127 0.00064554 -0.10592283 -5.02835518e-03
134 1 9.54577907 0.00064123 -0.10266159 -6.79157831e-03
135 1 9.66808225 0.00067107 -0.09935437 -4.92113473e-03
136 1 9.79041705 0.00064683 -0.09603667 -5.56259368e-03
137 1 9.91275172 0.00062427 -0.09267281 -5.94323360e-03
138 1 10.03508348 0.00064689 -0.08926274 -5.00637084e-03
139 1 10.15737446 0.00062755 -0.08585740 -6.75640181e-03
140 1 10.27967932 0.00060366 -0.08241840 -4.91035923e-03
141 1 10.40197887 0.00060010 -0.07893806 -5.75765677e-03
142 1 10.52428881 0.00059989 -0.07545395 -6.37465021e-03
143 1 10.64659584 0.00061802 -0.07194875 -6.33172667e-03
144 1 10.76889287 0.00062389 -0.06841228 -5.77695765e-03
145 1 10.89120881 0.00064832 -0.06485534 -5.75602868e-03
146 1 11.01350814 0.00063686 -0.06127698 -5.94989338e-03
147 1 11.13579538 0.00062509 -0.05763728 -6.09206826e-03
148 1 11.25810035 0.00065036 -0.05398586 -6.09206826e-03
149 1 11.38040386 0.00062879 -0.05030041 -6.49862787e-03
150 1 11.50271180 0.00064244 -0.04658313 -6.47806478e-03
151 1 11.62501058 0.00061943 -0.04285907 -5.98398651e-03
152 1 11.74731987 0.00063746 -0.03909672 -5.97118729e-03
153 1 11.86960954 0.00061643 -0.03532423 -6.32827249e-03
154 1 11.99190160 0.00061905 -0.03153245 -6.38296841e-03
155 1 12.11419874 0.00064871 -0.02771754 -6.09206826e-03
156 1 12.23648952 0.00062104 -0.02385363 -5.92176613e-03
157 1 12.35877088 0.00062950 -0.01998597 -5.84196899e-03
158 1 12.48103485 0.00062363 -0.01609088 -5.89327746e-03
159 1 12.60333290 0.00063155 -0.01215378 -4.96011300e-03
160 1 12.72560805 0.00063203 -0.00821091 -6.65158567e-03
161 1 12.84788447 0.00063317 -0.00423332 -4.90989307e-03
162 1 12.97018305 0.00062959 -0.00025511 -5.52395043e-03
163 1 13.09246428 0.00064511 0.00375942 -5.87068470e-03
164 1 13.21473823 0.00064303 0.00778975 -4.88602194e-03
165 1 13.33700714 0.00065007 0.01184700 -6.40279006e-03
166 1 13.45927921 0.00064393 0.01591864 -5.12407601e-03
167 1 13.58154978 0.00063549 0.02002143 -4.88216806e-03
168 1 13.70381902 0.00062938 0.02413652 -6.38017819e-03
169 1 13.82608510 0.00065177 0.02827603 -5.11373203e-03
170 1 13.94835122 0.00064101 0.03243846 -4.85398664e-03
171 1 14.07062504 0.00063679 0.03662001 -6.35577596e-03
172 1 14.19287904 0.00065463 0.04083175 -5.10698016e-03
173 1 14.31515169 0.00063320 0.04504503 -4.85870271e-03
174 1 14.43741209 0.00063527 0.04930760 -6.37702085e-03
175 1 14.55967395 0.00061420 0.05356354 -5.10092274e-03
176 1 14.68193232 0.00062275 0.05784540 -4.84968636e-03
177 1 14.80418240 0.00062788 0.06215382 -6.37599125e-03
178 1 14.92644501 0.00062802 0.06647435 -4.87710407e-03
179 1 15.04870835 0.00063080 0.07081994 -5.56677439e-03
180 1 15.17097105 0.00061121 0.07517598 -5.93477518e-03
181 1 15.29322866 0.00062361 0.07956012 -6.09206826e-03
182 1 15.41548609 0.00061292 0.08395812 -6.09206826e-03
183 1 15.53773600 0.00061797 0.08837443 -5.98211588e-03
184 1 15.65998161 0.00061157 0.09281201 -5.88223740e-03
185 1 15.78223659 0.00061566 0.09727793 -5.93479953e-03
186 1 15.90449104 0.00058636 0.10175896 -4.77734034e-03
187 1 16.02673028 0.00058750 0.10625370 -6.31776323e-03
188 1 16.14897420 0.00059618 0.11075836 -4.85845554e-03
189 1 16.27122605 0.00059704 0.11529017 -5.48045656e-03
190 1 16.39346925 0.00058714 0.11983693 -5.74774533e-03
191 1 16.51570159 0.00057508 0.12440648 -5.91938606e-03
192 1 16.63795142 0.00056448 0.12900320 -4.72601755e-03
193 1 16.76019633 0.00056967 0.13360786 -6.44309587e-03
194 1 16.88242438 0.00056532 0.13822347 -5.21392668e-03
195 1 17.00465983 0.00055813 0.14284348 -4.32492230e-03
196 1 17.12689845 0.00055076 0.14749040 -6.11554878e-03
197 1 17.24912799 0.00054424 0.15216169 -5.20526136e-03
198 1 17.37137634 0.00054193 0.15684237 -4.31230685e-03
199 1 17.49359851 0.00053507 0.16153176 -6.11716232e-03
200 1 17.61582270 0.00054509 0.16625456 -5.69773107e-03
201 1 17.73805667 0.00052386 0.17098244 -5.99314584e-03
202 1 17.86029147 0.00052690 0.17572770 -4.76350900e-03
203 1 17.98251531 0.00051483 0.18050099 -5.21120302e-03
204 1 18.10474565 0.00051104 0.18527175 -6.01204532e-03
205 1 18.22696257 0.00050070 0.19006032 -5.73233737e-03
206 1 18.34919383 0.00048002 0.19486665 -5.81943467e-03
207 1 18.47140800 0.00048134 0.19969014 -6.32655047e-03
208 1 18.59364166 0.00046897 0.20452639 -5.03614005e-03
209 1 18.71585704 0.00046009 0.20936352 -4.70280803e-03
210 1 18.83807044 0.00045146 0.21423419 -8.65683464e-03
211 1 18.96029134 0.00045334 0.21910684 -5.94692004e-03
212 1 19.08250003 0.00044497 0.22400444 -5.65885778e-03
213 1 19.20472506 0.00043644 0.22889811 -5.99277035e-03
214 1 19.32693664 0.00041877 0.23381790 -6.04066598e-03
215 1 19.44914199 0.00040504 0.23874276 -6.09206826e-03
216 1 19.57136406 0.00041468 0.24368835 -6.09206826e-03
217 1 19.69356630 0.00040647 0.24863949 -6.09206826e-03
218 1 19.81577935 0.00038553 0.25359884 -5.94140402e-03
219 1 19.93798575 0.00037210 0.25857236 -6.09135703e-03
220 1 20.06019091 0.00036701 0.26355793 -6.09135703e-03
221 1 20.18240387 0.00035733 0.26855337 -6.09206826e-03
222 1 20.30460800 0.00034709 0.27356030 -6.22362401e-03
223 1 20.42680410 0.00034815 0.27857893 -6.30618064e-03
224 1 20.54900954 0.00033246 0.28360592 -6.16079228e-03
225 1 20.67121054 0.00031738 0.28864044 -6.90076158e-03
226 1 20.79340749 0.00030898 0.29368769 -7.19612184e-03
227 1 20.91561012 0.00029951 0.29874185 -6.17999120e-03
228 1 21.03780906 0.00029560 0.30380874 -5.85545161e-03
229 1 21.16000505 0.00028422 0.30888239 -6.04373412e-03
230 1 21.28220574 0.00028046 0.31397168 -6.05837687e-03
231 1 21.40440431 0.00026450 0.31906654 -6.22625934e-03
232 1 21.52659499 0.00024942 0.32416995 -6.96326852e-03
233 1 21.64879230 0.00023952 0.32927823 -6.60839364e-03
234 1 21.77098067 0.00023329 0.33440432 -6.08325267e-03
235 1 21.89316962 0.00022219 0.33954114 -5.98999100e-03
236 1 22.01536155 0.00021495 0.34467940 -6.02220795e-03
237 1 22.13755134 0.00019753 0.34982814 -5.94934321e-03
238 1 22.25973980 0.00018502 0.35498386 -6.23085673e-03
239 1 22.38192249 0.00017542 0.36014525 -5.91383044e-03
240 1 22.50411304 0.00016809 0.36531269 -5.82022831e-03
241 1 22.62629539 0.00015353 0.37048565 -6.06616825e-03
242 1 22.74848241 0.00013580 0.37567113 -6.09206826e-03
243 1 22.87066117 0.00012690 0.38085999 -6.22108889e-03
244 1 22.99284291 0.00012491 0.38605132 -6.93510095e-03
245 1 23.11502171 0.00011483 0.39125431 -6.55067958e-03
246 1 23.23720571 0.00010102 0.39645617 -5.44215936e-03
247 1 23.35938055 0.00009236 0.40166644 -5.52453627e-03
248 1 23.48156126 0.00008554 0.40688223 -6.11677386e-03
249 1 23.60373430 0.00007257 0.41210172 -5.40422112e-03
250 1 23.72591238 0.00005665 0.41732773 -5.51625079e-03
251 1 23.84808928 0.00004441 0.42255972 -6.10817079e-03
252 1 23.97026342 0.00003165 0.42779524 -5.39058303e-03
253 1 24.09243620 0.00002137 0.43303471 -5.51111698e-03
254 1 24.21461077 0.00000672 0.43827624 -6.09959331e-03
255 1 24.33678174 -0.00000579 0.44352058 -5.37708140e-03
256 1 24.45895316 -0.00001158 0.44876995 -5.50601994e-03
257 1 24.58112313 -0.00002451 0.45401937 -6.09132348e-03
258 1 24.70329234 -0.00003795 0.45927335 -5.36406280e-03
259 1 24.82546096 -0.00004823 0.46453107 -5.50114066e-03
260 1 24.94762683 -0.00006055 0.46979008 -6.07613573e-03
261 1 25.06979379 -0.00007185 0.47505069 -5.86576563e-03
262 1 25.19195928 -0.00008502 0.48031270 -5.87763703e-03
263 1 25.31412558 -0.00009652 0.48557550 -5.79509293e-03
264 1 25.43628934 -0.00010791 0.49084005 -6.45795830e-03
265 1 25.55845340 -0.00011987 0.49610514 -6.36067877e-03
266 1 25.68061612 -0.00013115 0.50137040 -5.01672083e-03
267 1 0.12224847 -0.00007707 0.24517984 4.80862070e-03
268 1 0.24448358 -0.00014634 0.24516707 5.62714142e-03
269 1 0.36672001 -0.00013581 0.24520084 6.00619986e-03
270 1 0.48894746 -0.00014132 0.24536242 6.09052560e-03
271 1 0.61112099 -0.00020073 0.24553083 6.09206826e-03
272 1 0.73334461 -0.00023849 0.24574785 5.94781856e-03
273 1 0.85556305 -0.00025360 0.24606498 5.82025544e-03
274 1 0.97773708 -0.00020582 0.24639451 5.95871849e-03
275 1 1.09991902 -0.00020803 0.24682284 6.09232315e-03
276 1 1.22213079 -0.00022559 0.24733680 6.09205550e-03
277 1 1.34432882 -0.00020157 0.24784123 6.08598370e-03
278 1 1.46654924 -0.00023239 0.24840540 6.07933546e-03
279 1 1.58877633 -0.00025159 0.24907384 6.08488133e-03
280 1 1.71094204 -0.00024867 0.24976796 6.08161608e-03
281 1 1.83315288 -0.00028298 0.25055314 6.08881076e-03
282 1 1.95538676 -0.00030463 0.25138661 6.09207793e-03
283 1 2.07752280 -0.00028968 0.25224859 6.09206431e-03
284 1 2.19975728 -0.00025029 0.25317880 6.09206920e-03
285 1 2.32197155 -0.00027100 0.25419990 6.09206749e-03
286 1 2.44420182 -0.00026894 0.25526278 6.09206826e-03
287 1 2.56642321 -0.00025997 0.25633669 6.09206901e-03
288 1 2.68865866 -0.00028145 0.25751552 6.08547783e-03
289 1 2.81085243 -0.00027186 0.25868709 6.07797420e-03
290 1 2.93306378 -0.00026515 0.25994428 6.08460882e-03
291 1 3.05528854 -0.00024046 0.26122869 6.08123045e-03
292 1 3.17752121 -0.00023653 0.26259268 6.08867780e-03
293 1 3.29970643 -0.00024617 0.26396644 6.09206866e-03
294 1 3.42191983 -0.00028396 0.26539739 6.09206839e-03
295 1 3.54413506 -0.00025486 0.26688685 6.09206833e-03
296 1 3.66635707 -0.00026744 0.26841766 6.09206826e-03
297 1 3.78859905 -0.00028364 0.26999649 6.09206824e-03
298 1 3.91079633 -0.00030118 0.27160094 6.09206825e-03
299 1 4.03301874 -0.00029579 0.27326595 6.10477040e-03
300 1 4.15521278 -0.00027364 0.27495879 6.10144793e-03
301 1 4.27745755 -0.00026875 0.27669748 6.09206826e-03
302 1 4.39969270 -0.00026594 0.27847303 6.08473760e-03
303 1 4.52192223 -0.00029944 0.28024796 6.07718969e-03
304 1 4.64415944 -0.00034179 0.28209683 6.08430762e-03
305 1 4.76637083 -0.00028301 0.28400666 6.08084602e-03
306 1 4.88858618 -0.00029875 0.28594579 6.08857506e-03
307 1 5.01080070 -0.00032692 0.28794531 6.09439460e-03
308 1 5.13302230 -0.00034305 0.28997716 6.09360296e-03
309 1 5.25522635 -0.00029551 0.29202847 6.10212083e-03
310 1 5.37742216 -0.00031237 0.29413848 6.09455787e-03
311 1 5.49965009 -0.00031736 0.29628584 6.08457013e-03
312 1 5.62187734 -0.00030198 0.29847061 6.08334006e-03
313 1 5.74407938 -0.00030630 0.30068991 6.09025173e-03
314 1 5.86629985 -0.00032898 0.30294843 6.09206826e-03
315 1 5.98854305 -0.00034186 0.30525301 6.09206826e-03
316 1 6.11074803 -0.00033804 0.30758288 6.08838437e-03
317 1 6.23295692 -0.00031718 0.30998528 6.09329454e-03
318 1 6.35514787 -0.00037436 0.31241611 6.09400483e-03
319 1 6.47737422 -0.00037601 0.31486062 6.08872179e-03
320 1 6.59960317 -0.00037394 0.31733393 6.08812243e-03
321 1 6.72180093 -0.00035885 0.31982990 6.09206826e-03
322 1 6.84401759 -0.00037022 0.32240479 6.09206826e-03
323 1 6.96623982 -0.00034708 0.32502366 6.09206826e-03
324 1 7.08843707 -0.00035723 0.32766335 6.06302327e-03
325 1 7.21064108 -0.00034716 0.33034220 6.06302327e-03
326 1 7.33284565 -0.00034691 0.33304878 5.90236529e-03
327 1 7.45507204 -0.00033758 0.33580311 5.81608564e-03
328 1 7.57730052 -0.00031436 0.33858088 6.10035823e-03
329 1 7.69950378 -0.00033949 0.34139440 5.08741347e-03
330 1 7.82174338 -0.00035401 0.34419952 6.88423117e-03
331 1 7.94394719 -0.00033948 0.34709172 4.95164977e-03
332 1 8.06612953 -0.00033694 0.34996962 5.63292633e-03
333 1 8.18834315 -0.00035486 0.35290821 5.95654755e-03
334 1 8.31055891 -0.00035861 0.35586748 6.00432988e-03
335 1 8.43276975 -0.00034849 0.35885765 6.08757506e-03
336 1 8.55497978 -0.00034815 0.36188252 5.05700823e-03
337 1 8.67719827 -0.00037428 0.36491851 6.83715280e-03
338 1 8.79940201 -0.00035928 0.36798166 4.93632937e-03
339 1 8.92162424 -0.00037984 0.37110603 5.62467055e-03
340 1 9.04382146 -0.00040081 0.37423699 5.95386311e-03
341 1 9.16601038 -0.00039776 0.37741761 6.00199927e-03
342 1 9.28823109 -0.00040290 0.38062186 6.06987486e-03
343 1 9.41040964 -0.00041251 0.38385163 5.01509653e-03
344 1 9.53263031 -0.00040598 0.38709733 6.78511241e-03
345 1 9.65483134 -0.00041995 0.39038423 4.92113473e-03
346 1 9.77703881 -0.00042939 0.39372338 5.61645056e-03
347 1 9.89922759 -0.00041000 0.39708861 5.95118153e-03
348 1 10.02143178 -0.00042420 0.40046266 6.09206826e-03
349 1 10.14361977 -0.00041767 0.40389475 6.09206826e-03
350 1 10.26581876 -0.00042884 0.40732204 6.09206826e-03
351 1 10.38803712 -0.00042610 0.41078804 6.50085567e-03
352 1 10.51024085 -0.00043395 0.41427050 6.38496347e-03
353 1 10.63245703 -0.00044094 0.41777924 5.77251663e-03
354 1 10.75464696 -0.00044827 0.42131576 5.73476969e-03
355 1 10.87685989 -0.00045893 0.42487572 5.94888879e-03
356 1 10.99905973 -0.00048803 0.42846292 6.09206826e-03
357 1 11.12124851 -0.00046883 0.43207743 6.09206826e-03
358 1 11.24345110 -0.00047898 0.43573028 6.09206826e-03
359 1 11.36564059 -0.00049677 0.43940509 6.09206826e-03
360 1 11.48781649 -0.00048532 0.44312491 4.98457375e-03
361 1 11.61002875 -0.00048451 0.44685128 6.69756871e-03
362 1 11.73223652 -0.00047948 0.45060287 5.15375987e-03
363 1 11.85441739 -0.00048660 0.45437426 4.95985007e-03
364 1 11.97660792 -0.00049495 0.45816219 6.48212442e-03
365 1 12.09881266 -0.00050626 0.46199676 5.14927068e-03
366 1 12.22100182 -0.00049407 0.46584124 4.95341033e-03
367 1 12.34319384 -0.00052693 0.46972653 6.46347279e-03
368 1 12.46537472 -0.00049979 0.47360927 5.14043101e-03
369 1 12.58755639 -0.00052346 0.47754058 4.91020010e-03
370 1 12.70976636 -0.00051550 0.48147456 6.45556760e-03
371 1 12.83196502 -0.00051803 0.48544213 4.90989307e-03
372 1 12.95415673 -0.00053093 0.48943469 5.52395043e-03
373 1 13.07634477 -0.00052176 0.49344247 5.87068470e-03
374 1 13.19852172 -0.00052373 0.49748086 4.87920209e-03
375 1 13.32071230 -0.00053936 0.50152897 6.41661913e-03
376 1 13.44289641 -0.00054017 0.50560546 4.89988333e-03
377 1 13.56509014 -0.00053524 0.50969347 5.51681014e-03
378 1 13.68728190 -0.00053711 0.51381159 5.85936171e-03
379 1 13.80945357 -0.00055028 0.51795964 4.85938456e-03
380 1 13.93163437 -0.00054829 0.52210763 6.38254444e-03
381 1 14.05382700 -0.00056675 0.52627955 4.88995824e-03
382 1 14.17601321 -0.00056823 0.53048951 5.57476230e-03
383 1 14.29819189 -0.00054612 0.53471479 5.93743790e-03
384 1 14.42036420 -0.00057914 0.53895770 5.98766457e-03
385 1 14.54254394 -0.00057805 0.54320972 5.96043235e-03
386 1 14.66472444 -0.00056957 0.54750187 4.81637844e-03
387 1 14.78691806 -0.00057983 0.55181728 6.34214196e-03
388 1 14.90910236 -0.00057803 0.55612436 4.87620659e-03
389 1 15.03128260 -0.00058040 0.56045953 5.56677439e-03
390 1 15.15346164 -0.00060001 0.56481094 5.93477518e-03
391 1 15.27563024 -0.00060545 0.56918982 5.98532808e-03
392 1 15.39780983 -0.00059999 0.57359018 5.94249673e-03
393 1 15.51998128 -0.00061824 0.57800589 4.79106117e-03
394 1 15.64215685 -0.00063318 0.58245012 6.34873408e-03
395 1 15.76432184 -0.00061095 0.58690885 5.10720957e-03
396 1 15.88649401 -0.00063485 0.59139136 4.79385489e-03
397 1 16.00867279 -0.00065417 0.59587825 6.33054845e-03
398 1 16.13085828 -0.00066651 0.60039453 5.10009402e-03
399 1 16.25301577 -0.00066927 0.60491943 4.78369059e-03
400 1 16.37520258 -0.00066211 0.60946071 6.31203828e-03
401 1 16.49737543 -0.00066983 0.61402059 5.09300092e-03
402 1 16.61953411 -0.00066887 0.61860167 4.74903927e-03
403 1 16.74170515 -0.00067616 0.62321200 6.32830758e-03
404 1 16.86388904 -0.00068054 0.62781909 5.08343922e-03
405 1 16.98606430 -0.00069021 0.63246331 4.32591159e-03
406 1 17.10822909 -0.00071274 0.63710364 6.00104739e-03
407 1 17.23040499 -0.00070307 0.64177112 5.21119202e-03
408 1 17.35255588 -0.00072662 0.64644666 6.09206826e-03
409 1 17.47473316 -0.00073916 0.65113994 6.05153388e-03
410 1 17.59689178 -0.00073712 0.65584879 5.91774538e-03
411 1 17.71906710 -0.00075144 0.66057320 6.22305381e-03
412 1 17.84123853 -0.00075009 0.66532672 5.03791106e-03
413 1 17.96340183 -0.00076301 0.67008968 4.72607940e-03
414 1 18.08557508 -0.00076452 0.67486115 8.71836332e-03
415 1 18.20774320 -0.00078451 0.67965107 5.95355142e-03
416 1 18.32990900 -0.00078376 0.68445201 5.36960420e-03
417 1 18.45207442 -0.00081010 0.68927015 6.03255871e-03
418 1 18.57423686 -0.00081341 0.69409660 5.00245570e-03
419 1 18.69639100 -0.00082730 0.69894078 4.70280803e-03
420 1 18.81855770 -0.00082150 0.70380586 8.65685956e-03
421 1 18.94072069 -0.00083118 0.70868691 5.94692135e-03
422 1 19.06288929 -0.00084744 0.71356881 5.65886656e-03
423 1 19.18505743 -0.00085389 0.71847402 5.98663784e-03
424 1 19.30721056 -0.00086146 0.72339426 6.03862808e-03
425 1 19.42937169 -0.00087502 0.72831815 6.08821513e-03
426 1 19.55154173 -0.00088185 0.73325386 6.17296108e-03
427 1 19.67371050 -0.00089273 0.73820735 6.04911048e-03
428 1 19.79587064 -0.00089002 0.74316525 6.99423467e-03
429 1 19.91803475 -0.00089716 0.74813867 6.49916941e-03
430 1 20.04019914 -0.00091019 0.75312338 6.05139015e-03
431 1 20.16235466 -0.00091301 0.75812876 6.07023001e-03
432 1 20.28451708 -0.00092889 0.76312711 6.06423220e-03
433 1 20.40667971 -0.00093975 0.76814308 6.03339671e-03
434 1 20.52884553 -0.00095476 0.77316299 6.06123277e-03
435 1 20.65100174 -0.00095528 0.77819953 6.05523286e-03
436 1 20.77316220 -0.00097170 0.78324561 6.01539697e-03
437 1 20.89532789 -0.00097400 0.78830215 6.05223237e-03
438 1 21.01749084 -0.00099008 0.79336055 6.04623034e-03
439 1 21.13964047 -0.00099829 0.79843539 5.99739088e-03
440 1 21.26180567 -0.00100836 0.80352112 6.03386113e-03
441 1 21.38396938 -0.00101751 0.80861860 6.06015229e-03
442 1 21.50612276 -0.00103072 0.81372099 6.93292310e-03
443 1 21.62827531 -0.00103596 0.81883611 6.60839364e-03
444 1 21.75043258 -0.00104924 0.82395944 6.08325267e-03
445 1 21.87258976 -0.00105423 0.82908718 5.98999100e-03
446 1 21.99475069 -0.00106289 0.83422661 6.02220795e-03
447 1 22.11690872 -0.00107143 0.83937264 5.94934321e-03
448 1 22.23906678 -0.00108729 0.84452688 6.00521256e-03
449 1 22.36122893 -0.00109465 0.84969287 5.96042100e-03
450 1 22.48338192 -0.00110172 0.85486042 6.01327673e-03
451 1 22.60554245 -0.00110650 0.86003636 6.06616825e-03
452 1 22.72770030 -0.00111901 0.86521687 6.09206826e-03
453 1 22.84985922 -0.00112998 0.87040415 6.22108889e-03
454 1 22.97201953 -0.00114026 0.87559596 6.93510095e-03
455 1 23.09417694 -0.00114923 0.88079513 6.55067958e-03
456 1 23.21633032 -0.00115922 0.88600155 5.44215936e-03
457 1 23.33848959 -0.00117178 0.89120844 5.52453627e-03
458 1 23.46064935 -0.00117847 0.89642328 6.09206826e-03
459 1 23.58280675 -0.00118649 0.90164526 5.52769247e-03
460 1 23.70496485 -0.00119759 0.90686929 5.54504444e-03
461 1 23.82712455 -0.00120570 0.91210211 6.09206826e-03
462 1 23.94927910 -0.00121736 0.91733706 5.52433613e-03
463 1 24.07143998 -0.00122649 0.92257499 5.54169116e-03
464 1 24.19359736 -0.00123178 0.92781640 6.09959331e-03
465 1 24.31575569 -0.00124374 0.93306206 5.37708140e-03
466 1 24.43791616 -0.00125294 0.93831037 5.50601994e-03
467 1 24.56007597 -0.00126244 0.94356237 6.09132348e-03
468 1 24.68223352 -0.00127169 0.94881747 5.36406280e-03
469 1 24.80439346 -0.00128119 0.95407425 5.50114066e-03
470 1 24.92655182 -0.00128975 0.95933197 6.07613573e-03
471 1 25.04871324 -0.00130040 0.96459284 5.86576563e-03
472 1 25.17087276 -0.00130921 0.96985534 5.87763704e-03
473 1 25.29303236 -0.00131845 0.97511840 5.79509293e-03
474 1 25.41519311 -0.00132874 0.98038339 6.45795830e-03
475 1 25.53735333 -0.00133823 0.98564847 6.36067877e-03
476 1 25.65951403 -0.00134793 0.99091432 5.01672083e-03
477 1 0.12236765 1.20983693 -0.24469349 -5.06599779e-03
478 1 0.24473396 1.20975574 -0.24468517 -5.96099493e-03
479 1 0.36714922 1.20963851 -0.24458542 -6.06828787e-03
480 1 0.48957954 1.20965367 -0.24445985 -6.09081051e-03
481 1 0.61200049 1.20964273 -0.24424413 -6.09597885e-03
482 1 0.73442059 1.20965468 -0.24399497 -6.09677124e-03
483 1 0.85689628 1.20959973 -0.24366263 -6.09261604e-03
484 1 0.97933205 1.20963404 -0.24328986 -6.09210769e-03
485 1 1.10180373 1.20959079 -0.24279736 -6.09159289e-03
486 1 1.22421821 1.20959141 -0.24228793 -6.09258964e-03
487 1 1.34665682 1.20968343 -0.24176842 -6.11404233e-03
488 1 1.46907630 1.20969501 -0.24113434 -6.12924398e-03
489 1 1.59148164 1.20963181 -0.24045868 -6.13810471e-03
490 1 1.71390428 1.20963905 -0.23974795 -6.10740278e-03
491 1 1.83634660 1.20962236 -0.23895691 -6.11299929e-03
492 1 1.95879083 1.20963803 -0.23805719 -6.11651709e-03
493 1 2.08120688 1.20961064 -0.23720947 -6.10892752e-03
494 1 2.20363627 1.20969046 -0.23625631 -6.08383817e-03
495 1 2.32608349 1.20971754 -0.23523105 -6.07811671e-03
496 1 2.44848995 1.20969299 -0.23413647 -6.12167487e-03
497 1 2.57088145 1.20965386 -0.23303723 -6.12891596e-03
498 1 2.69330256 1.20969793 -0.23189544 -6.13439434e-03
499 1 2.81574639 1.20973104 -0.23065986 -6.11877956e-03
500 1 2.93816187 1.20968590 -0.22938392 -6.09486572e-03
501 1 3.06056871 1.20972419 -0.22806764 -6.09206826e-03
502 1 3.18301648 1.20971815 -0.22669894 -6.09206855e-03
503 1 3.30541476 1.20971579 -0.22526912 -6.09206932e-03
504 1 3.42778350 1.20972420 -0.22379419 -6.11378764e-03
505 1 3.55024502 1.20978991 -0.22229176 -6.10132488e-03
506 1 3.67260854 1.20980657 -0.22072479 -6.14015253e-03
507 1 3.79499563 1.20977829 -0.21914727 -6.18862768e-03
508 1 3.91736906 1.20981760 -0.21746464 -6.20494803e-03
509 1 4.03975000 1.20981548 -0.21580932 -6.16689241e-03
510 1 4.16211961 1.20981442 -0.21406968 -6.13536340e-03
511 1 4.28450496 1.20980060 -0.21232286 -6.09206826e-03
512 1 4.40687993 1.20979261 -0.21052854 -6.09528258e-03
513 1 4.52927515 1.20982766 -0.20871101 -6.10197805e-03
514 1 4.65167915 1.20981011 -0.20684155 -6.09705471e-03
515 1 4.77404997 1.20983425 -0.20491669 -6.06436498e-03
516 1 4.89646287 1.20980612 -0.20293088 -6.12133674e-03
517 1 5.01881985 1.20983503 -0.20093833 -6.20974613e-03
518 1 5.14119692 1.20986351 -0.19889521 -6.24802334e-03
519 1 5.26355668 1.20987598 -0.19680113 -6.19819175e-03
520 1 5.38595021 1.20982999 -0.19467577 -6.15088270e-03
521 1 5.50834553 1.20984799 -0.19250940 -6.13301438e-03
522 1 5.63071001 1.20989514 -0.19029793 -6.10131989e-03
523 1 5.75310358 1.20988912 -0.18804806 -6.05757291e-03
524 1 5.87547095 1.20991975 -0.18576063 -6.04491082e-03
525 1 5.99782012 1.20990639 -0.18340419 -6.05437557e-03
526 1 6.12020329 1.20994582 -0.18104782 -6.06489385e-03
527 1 6.24255340 1.20996549 -0.17864599 -6.09206826e-03
528 1 6.36491285 1.20998767 -0.17619748 -6.09206826e-03
529 1 6.48728338 1.20995045 -0.17371813 -6.09979510e-03
530 1 6.60963309 1.20996149 -0.17119588 -6.12512692e-03
531 1 6.73199463 1.20999285 -0.16865003 -6.16578501e-03
532 1 6.85435608 1.20996660 -0.16603357 -6.26929389e-03
533 1 6.97667882 1.20997667 -0.16341649 -6.28695529e-03
534 1 7.09904972 1.21002068 -0.16079165 -6.28583704e-03
535 1 7.22139470 1.21000363 -0.15810235 -6.23881179e-03