ITEM: TIMESTEP
0
ITEM: NUMBER OF ATOMS
10710
ITEM: BOX BOUNDS ff ff ff
-2.0 25.140572971122076
-2.0083075884463732 3.4315623434864433
-2.246085230798835 13.389545049550454
ITEM: ATOMS id type x y z q
1 2 0.00000000 0.00000000 0.24527477 3.35542180e-03
2 2 0.00000000 0.00000000 -0.24472523 -3.35542180e-03
3 2 0.00000000 1.21000000 0.24527477 3.41686920e-03
4 2 0.00000000 1.21000000 -0.24472523 -3.41686920e-03
5 1 22.89575214 0.20362164 11.35569691 3.37776783e-03
6 1 23.14057297 0.22271146 10.93143523 -3.37776783e-03
7 1 22.85981098 1.41229527 11.38954505 3.41686920e-03
8 1 23.10459100 1.43156234 10.96528084 -3.41686920e-03
9 2 0.00000000 0.00000000 -0.12222523 0.00000000e+00
10 2 0.00000000 0.00000000 0.00027477 0.00000000e+00
11 2 0.00000000 0.00000000 0.12277477 0.00000000e+00
12 2 0.00000000 0.12100000 0.24527477 5.18139194e-03
13 2 0.00000000 0.24200000 0.24527477 5.50362000e-03
14 2 0.00000000 0.36300000 0.24527477 5.01501884e-03
15 2 0.00000000 0.48400000 0.24527477 5.50904170e-03
16 2 0.00000000 0.60500000 0.24527477 6.02408537e-03
17 2 0.00000000 0.72600000 0.24527477 6.86123120e-03
18 2 0.00000000 0.84700000 0.24527477 6.83241897e-03
19 2 0.00000000 0.96800000 0.24527477 5.84994208e-03
20 2 0.00000000 1.08900000 0.24527477 4.96878236e-03
21 2 0.00000000 1.21000000 -0.12222523 0.00000000e+00
22 2 0.00000000 1.21000000 0.00027477 0.00000000e+00
23 2 0.00000000 1.21000000 0.12277477 0.00000000e+00
24 2 0.00000000 0.12100000 -0.24472523 -5.18139194e-03
25 2 0.00000000 0.24200000 -0.24472523 -5.50362000e-03
26 2 0.00000000 0.36300000 -0.24472523 -5.01501884e-03
27 2 0.00000000 0.48400000 -0.24472523 -5.50904170e-03
28 2 0.00000000 0.60500000 -0.24472523 -6.02408537e-03
29 2 0.00000000 0.72600000 -0.24472523 -6.86123120e-03
30 2 0.00000000 0.84700000 -0.24472523 -6.83241897e-03
31 2 0.00000000 0.96800000 -0.24472523 -5.84994208e-03
32 2 0.00000000 1.08900000 -0.24472523 -4.96878236e-03
33 1 23.07936118 0.21793529 11.03750667 0.00000000e+00
34 1 23.01815491 0.21316071 11.14356700 0.00000000e+00
35 1 22.95695041 0.20839053 11.24962777 0.00000000e+00
36 1 22.89216433 0.32449379 11.35906679 5.05002864e-03
37 1 22.88858061 0.44536234 11.36243812 5.64089052e-03
38 1 22.88499545 0.56623245 11.36580853 5.44128437e-03
39 1 22.88142232 0.68710083 11.36918753 6.40224548e-03
40 1 22.87781555 0.80796402 11.37256365 6.88148315e-03
41 1 22.87422416 0.92882844 11.37594358 6.11583422e-03
42 1 22.87062214 1.04969738 11.37933637 5.69198232e-03
43 1 22.86700692 1.17057005 11.38274323 6.01735171e-03
44 1 22.86340288 1.29143270 11.38614097 5.43527194e-03
45 1 23.04339248 1.42674600 11.07135012 0.00000000e+00
46 1 22.98219353 1.42193076 11.17740795 0.00000000e+00
47 1 22.92099735 1.41711396 11.28347088 0.00000000e+00
48 1 23.13698252 0.34358906 10.93481144 -5.05002864e-03
49 1 23.13339295 0.46447534 10.93819184 -5.64089052e-03
50 1 23.12980286 0.58535582 10.94154817 -5.44128437e-03
51 1 23.12621407 0.70624241 10.94491592 -6.40224548e-03
52 1 23.12262122 0.82713097 10.94829797 -6.88148315e-03
53 1 23.11902129 0.94802432 10.95170371 -6.11583422e-03
54 1 23.11541639 1.06891797 10.95508172 -5.69198232e-03
55 1 23.11180785 1.18980398 10.95848315 -6.01735171e-03
56 1 23.10820592 1.31068330 10.96188716 -5.43527194e-03
57 1 0.12409703 0.00363490 -0.24608523 -4.80862070e-03
58 1 0.24867646 0.00645459 -0.24497810 -5.62714142e-03
59 1 0.37335464 0.00689156 -0.24314812 -6.00619986e-03
60 1 0.49896646 0.00681519 -0.24009014 -6.09052560e-03
61 1 0.62385156 0.00700424 -0.23541628 -6.09206826e-03
62 1 0.74887184 0.00841394 -0.22939917 -5.94781856e-03
63 1 0.87361992 0.00983466 -0.22226295 -5.82025544e-03
64 1 0.99807075 0.00899898 -0.21126526 -5.95871849e-03
65 1 1.12397142 0.00937225 -0.20064206 -6.09232315e-03
66 1 1.24889932 0.00894610 -0.18907633 -6.09205550e-03
67 1 1.37302964 0.00952078 -0.17540086 -6.08598370e-03
68 1 1.49719390 0.01079155 -0.15886932 -6.07933546e-03
69 1 1.62108737 0.01122279 -0.14351588 -6.08488133e-03
70 1 1.74471730 0.01130935 -0.12571281 -6.08161608e-03
71 1 1.86793441 0.01156759 -0.10682109 -6.08881076e-03
72 1 1.99222320 0.01152870 -0.08616406 -6.09207793e-03
73 1 2.11564854 0.01204853 -0.06483344 -6.09206431e-03
74 1 2.23867702 0.01328668 -0.04123863 -6.09206920e-03
75 1 2.36143728 0.01345565 -0.01720392 -6.09206749e-03
76 1 2.48346184 0.01340059 0.00788601 -6.09206826e-03
77 1 2.60506566 0.01376553 0.03393670 -6.09206901e-03
78 1 2.72707026 0.01306060 0.06087940 -6.08547783e-03
79 1 2.84835411 0.01386162 0.08894009 -6.07797420e-03
80 1 2.96935966 0.01546607 0.11819135 -6.08460882e-03
81 1 3.09023509 0.01525384 0.14823104 -6.08123045e-03
82 1 3.21049039 0.01597350 0.17964387 -6.08867780e-03
83 1 3.33032445 0.01662668 0.21195580 -6.09206866e-03
84 1 3.45037265 0.01720549 0.24542078 -6.09206839e-03
85 1 3.56975522 0.01711310 0.27909219 -6.09206833e-03
86 1 3.68919731 0.01709021 0.31418053 -6.09206826e-03
87 1 3.80859285 0.01841344 0.35006750 -6.09206824e-03
88 1 3.92726825 0.01917452 0.38630097 -6.09206825e-03
89 1 4.04594359 0.01899310 0.42310233 -6.10477040e-03
90 1 4.16423796 0.02022862 0.46091706 -6.10144793e-03
91 1 4.28170059 0.02076778 0.49959729 -6.09206826e-03
92 1 4.39979558 0.02114636 0.53866469 -6.08473760e-03
93 1 4.51676117 0.02166735 0.57847736 -6.07718969e-03
94 1 4.63375728 0.02261343 0.61937020 -6.08430762e-03
95 1 4.75047429 0.02358562 0.66054365 -6.08084602e-03
96 1 4.86729683 0.02403509 0.70214285 -6.08857506e-03
97 1 4.98384111 0.02534188 0.74493926 -6.09439460e-03
98 1 5.10003543 0.02548215 0.78830624 -6.09360296e-03
99 1 5.21557561 0.02630834 0.83281216 -6.10212083e-03
100 1 5.33132033 0.02672675 0.87736811 -6.09455787e-03
101 1 5.44630860 0.02809041 0.92234479 -6.08457013e-03
102 1 5.56111957 0.02863952 0.96812967 -6.08334006e-03
103 1 5.67627887 0.02920430 1.01504930 -6.09025173e-03
104 1 5.79037139 0.02994903 1.06195038 -6.09206826e-03
105 1 5.90453973 0.03070474 1.10934176 -6.09206826e-03
106 1 6.01837894 0.03195266 1.15742990 -6.08838437e-03
107 1 6.13180993 0.03272548 1.20590204 -6.09329454e-03
108 1 6.24566749 0.03303813 1.25488639 -6.09400483e-03
109 1 6.35891704 0.03412907 1.30444459 -6.08872179e-03
110 1 6.47199640 0.03521961 1.35494482 -6.08812243e-03
111 1 6.58434930 0.03606979 1.40552079 -6.09206826e-03
112 1 6.69700799 0.03682901 1.45629557 -6.09206826e-03
113 1 6.80906744 0.03760413 1.50745044 -6.09206826e-03
114 1 6.92069229 0.03864440 1.55952899 -6.06302327e-03
115 1 7.03250324 0.03898515 1.61187971 -6.06302327e-03
116 1 7.14413608 0.03987022 1.66486122 -5.90236529e-03
117 1 7.25528865 0.04081866 1.71816971 -5.81608564e-03
118 1 7.36629928 0.04169820 1.77163190 -6.10035823e-03
119 1 7.47723863 0.04252326 1.82558456 -5.08741334e-03
120 1 7.58777586 0.04332894 1.87980286 -6.87719096e-03
121 1 7.69803019 0.04436082 1.93431587 -5.18694999e-03
122 1 7.80868215 0.04491304 1.98910484 -5.00655937e-03
123 1 7.91858905 0.04590149 2.04437726 -7.17602109e-03
124 1 8.02848109 0.04708840 2.09992305 -5.64123658e-03
125 1 8.13852999 0.04807263 2.15582563 -5.91249038e-03
126 1 8.24792807 0.04883045 2.21185251 -5.77202514e-03
127 1 8.35727087 0.04977325 2.26816885 -5.95689302e-03
128 1 8.46670276 0.05086247 2.32485579 -6.09206826e-03
129 1 8.57580354 0.05149023 2.38190443 -6.09206826e-03
130 1 8.68465998 0.05243662 2.43908402 -6.09206826e-03
131 1 8.79339009 0.05346850 2.49645981 -6.00199927e-03
132 1 8.90215260 0.05481799 2.55417711 -6.06987486e-03
133 1 9.01069170 0.05580744 2.61218797 -5.02835518e-03
134 1 9.11898886 0.05669660 2.67039321 -6.79157831e-03
135 1 9.22693309 0.05790417 2.72897266 -4.92113473e-03
136 1 9.33509301 0.05865423 2.78770368 -5.56259368e-03
137 1 9.44304590 0.05945115 2.84680676 -5.94323360e-03
138 1 9.55076494 0.06064260 2.90625086 -5.00637084e-03
139 1 9.65820319 0.06147841 2.96551439 -6.75640181e-03
140 1 9.76560408 0.06226646 3.02507040 -4.91035923e-03
141 1 9.87280920 0.06323731 3.08490625 -5.75765677e-03
142 1 9.98005855 0.06425997 3.14479790 -6.37465021e-03
143 1 10.08719039 0.06542345 3.20483716 -6.33172667e-03
144 1 10.19413232 0.06647841 3.26504361 -5.77695765e-03
145 1 10.30111977 0.06768217 3.32543851 -5.75602868e-03
146 1 10.40793325 0.06862727 3.38591549 -5.94989338e-03
147 1 10.51446088 0.06957750 3.44673298 -6.09206826e-03
148 1 10.62103453 0.07078148 3.50769284 -6.09206826e-03
149 1 10.72749093 0.07167220 3.56881708 -6.49862787e-03
150 1 10.83386185 0.07279823 3.63013623 -6.47806478e-03
151 1 10.94015654 0.07369814 3.69145671 -5.98398651e-03
152 1 11.04637214 0.07484499 3.75302985 -5.97118729e-03
153 1 11.15245356 0.07578361 3.81460134 -6.32827249e-03
154 1 11.25849183 0.07686629 3.87624915 -6.38296841e-03
155 1 11.36446269 0.07809394 3.93804654 -6.09206826e-03
156 1 11.47028691 0.07901406 4.00002923 -5.92176613e-03
157 1 11.57603526 0.08011429 4.06201953 -5.84196899e-03
158 1 11.68165027 0.08116757 4.12407748 -5.89327746e-03
159 1 11.78730284 0.08229226 4.18639172 -4.96011300e-03
160 1 11.89284656 0.08338356 4.24868530 -6.65158567e-03
161 1 11.99831792 0.08447538 4.31112046 -4.90989307e-03
162 1 12.10386009 0.08556218 4.37358412 -5.52395043e-03
163 1 12.20924702 0.08672584 4.43614754 -5.87068470e-03
164 1 12.31456082 0.08782073 4.49875828 -4.88602194e-03
165 1 12.41981559 0.08895401 4.56144500 -6.40279006e-03
166 1 12.52503317 0.09005212 4.62418068 -5.12407601e-03
167 1 12.63019837 0.09115387 4.68699438 -4.88216806e-03
168 1 12.73533455 0.09225639 4.74986216 -6.38017819e-03
169 1 12.84040518 0.09345772 4.81277963 -5.11373203e-03
170 1 12.94543978 0.09457440 4.87574245 -4.85398664e-03
171 1 13.05046567 0.09569227 4.93877290 -6.35577596e-03
172 1 13.15539987 0.09688679 5.00183288 -5.10698016e-03
173 1 13.26037550 0.09798146 5.06491300 -4.85870271e-03
174 1 13.36525737 0.09913672 5.12809434 -6.37702085e-03
175 1 13.47014798 0.10024739 5.19124804 -5.10092274e-03
176 1 13.57499419 0.10143720 5.25444538 -4.84968636e-03
177 1 13.67979403 0.10260917 5.31768388 -6.37599125e-03
178 1 13.78459593 0.10378812 5.38094000 -4.87710407e-03
179 1 13.88937777 0.10496698 5.44422149 -5.56677439e-03
180 1 13.99414181 0.10611941 5.50752458 -5.93477518e-03
181 1 14.09886826 0.10731279 5.57085767 -6.09206826e-03
182 1 14.20359230 0.10849551 5.63418149 -6.09206826e-03
183 1 14.30829028 0.10968797 5.69752078 -5.98211588e-03
184 1 14.41296143 0.11087364 5.76087233 -5.88223740e-03
185 1 14.51763459 0.11207796 5.82425371 -5.93479953e-03
186 1 14.62231075 0.11327804 5.88761352 -4.77734034e-03
187 1 14.72695424 0.11448780 5.95099238 -6.31776323e-03
188 1 14.83159457 0.11571324 6.01434915 -4.85845554e-03
189 1 14.93622669 0.11692825 6.07770800 -5.48045656e-03
190 1 15.04084908 0.11815542 6.14107113 -5.74774533e-03
191 1 15.14547644 0.11938005 6.20443220 -5.91938606e-03
192 1 15.25009613 0.12061703 6.26777687 -4.72601755e-03
193 1 15.35471126 0.12183633 6.33112547 -6.44309587e-03
194 1 15.45935548 0.12308294 6.39445600 -5.21392668e-03
195 1 15.56398206 0.12433195 6.45777499 -4.32492230e-03
196 1 15.66860229 0.12556819 6.52108172 -6.11554878e-03
197 1 15.77323838 0.12681676 6.58436538 -5.20526136e-03
198 1 15.87785988 0.12807151 6.64761995 -4.31230685e-03
199 1 15.98249652 0.12931444 6.71088932 -6.11716232e-03
200 1 16.08715354 0.13055991 6.77411641 -5.69773107e-03
201 1 16.19180508 0.13184724 6.83732218 -5.99314584e-03
202 1 16.29645969 0.13310111 6.90049287 -4.76350900e-03
203 1 16.40115118 0.13440291 6.96362228 -5.21120302e-03
204 1 16.50582219 0.13568613 7.02675235 -6.01204532e-03
205 1 16.61053188 0.13696708 7.08986892 -5.73233737e-03
206 1 16.71523762 0.13825830 7.15293092 -5.81943467e-03
207 1 16.81998042 0.13954229 7.21597903 -6.32655047e-03
208 1 16.92469366 0.14084856 7.27895658 -5.03614005e-03
209 1 17.02944143 0.14214162 7.34196224 -4.70280803e-03
210 1 17.13422671 0.14343191 7.40490851 -8.65683464e-03
211 1 17.23899468 0.14472195 7.46782310 -5.94692004e-03
212 1 17.34384250 0.14605240 7.53066444 -5.65885778e-03
213 1 17.44862805 0.14736497 7.59351900 -5.99277035e-03
214 1 17.55349808 0.14871511 7.65629153 -6.04066598e-03
215 1 17.65838258 0.15005604 7.71906152 -6.09206826e-03
216 1 17.76324710 0.15132247 7.78172912 -6.09206826e-03
217 1 17.86817518 0.15265134 7.84442758 -6.09206826e-03
218 1 17.97308052 0.15402175 7.90708095 -5.94140402e-03
219 1 18.07803010 0.15537784 7.96969354 -6.09135703e-03
220 1 18.18299909 0.15670314 8.03226286 -6.09135703e-03
221 1 18.28796325 0.15803388 8.09478625 -6.09206826e-03
222 1 18.39297184 0.15939134 8.15726856 -6.22362401e-03
223 1 18.49803395 0.16070254 8.21971490 -6.30618064e-03
224 1 18.60307322 0.16209116 8.28211875 -6.16079228e-03
225 1 18.70813712 0.16346679 8.34450331 -6.90076158e-03
226 1 18.81324177 0.16481592 8.40684637 -7.19612184e-03
227 1 18.91833809 0.16617185 8.46914251 -6.17999120e-03
228 1 19.02347106 0.16750951 8.53138781 -5.85545161e-03
229 1 19.12862971 0.16888088 8.59360741 -6.04373412e-03
230 1 19.23380152 0.17020997 8.65574786 -6.05837687e-03
231 1 19.33899854 0.17162447 8.71784784 -6.22625934e-03
232 1 19.44424850 0.17302080 8.77993180 -6.96326852e-03
233 1 19.54946857 0.17439762 8.84197538 -6.60839364e-03
234 1 19.65477216 0.17576088 8.90395165 -6.08325267e-03
235 1 19.76011017 0.17716302 8.96587290 -5.98999100e-03
236 1 19.86543028 0.17852745 9.02778033 -6.02220795e-03
237 1 19.97079052 0.17996408 9.08962743 -5.94934321e-03
238 1 20.07617608 0.18137111 9.15144732 -6.23085673e-03
239 1 20.18159941 0.18276253 9.21325903 -5.91383044e-03
240 1 20.28700033 0.18414656 9.27499147 -5.82022831e-03
241 1 20.39244879 0.18557365 9.33672072 -6.06616825e-03
242 1 20.49791219 0.18701858 9.39836603 -6.09206826e-03
243 1 20.60342950 0.18841451 9.46001569 -6.22108889e-03
244 1 20.70893728 0.18975884 9.52163295 -6.93510095e-03
245 1 20.81449558 0.19116991 9.58319082 -6.55067958e-03
246 1 20.92002160 0.19261358 9.64473252 -5.44215936e-03
247 1 21.02562283 0.19401464 9.70625378 -5.52453627e-03
248 1 21.13120655 0.19539497 9.76772010 -6.11677386e-03
249 1 21.23685109 0.19683160 9.82917390 -5.40422112e-03
250 1 21.34247971 0.19828887 9.89057592 -5.51625079e-03
251 1 21.44813197 0.19971523 9.95194675 -6.10817079e-03
252 1 21.55381232 0.20114946 10.01329264 -5.39058303e-03
253 1 21.65950539 0.20256581 10.07461654 -5.51111698e-03
254 1 21.76519854 0.20401833 10.13592051 -6.09959331e-03
255 1 21.87093103 0.20546172 10.19721142 -5.37708140e-03
256 1 21.97666905 0.20684357 10.25846032 -5.50601994e-03
257 1 22.08241681 0.20828345 10.31971916 -6.09132348e-03
258 1 22.18818543 0.20973570 10.38094191 -5.36406280e-03
259 1 22.29396540 0.21116176 10.44214149 -5.50114066e-03
260 1 22.39977705 0.21261012 10.50333785 -6.07613573e-03
261 1 22.50557955 0.21404320 10.56452141 -5.86576563e-03
262 1 22.61140418 0.21550654 10.62568607 -5.87763703e-03
263 1 22.71722011 0.21695094 10.68684481 -5.79509293e-03
264 1 22.82305923 0.21839668 10.74799707 -6.45795830e-03
265 1 22.92888985 0.21983720 10.80914399 -6.36067877e-03
266 1 23.03472792 0.22127553 10.87029295 -5.01672083e-03
267 1 0.12089159 -0.00288160 0.24354479 4.80862070e-03
268 1 0.24153556 -0.00545704 0.24374281 5.62714142e-03
269 1 0.36206293 -0.00551037 0.24491667 6.00619986e-03
270 1 0.48222561 -0.00580467 0.24925681 6.09052560e-03
271 1 0.60106665 -0.00744177 0.25377225 6.09206826e-03
272 1 0.72135799 -0.00818599 0.25920332 5.94781856e-03
273 1 0.84128423 -0.00830759 0.26734454 5.82025544e-03
274 1 0.95998210 -0.00659537 0.27565440 5.95871849e-03
275 1 1.07873414 -0.00625243 0.28619159 6.09232315e-03
276 1 1.19809002 -0.00639010 0.29889904 6.09205550e-03
277 1 1.31718591 -0.00544845 0.31131718 6.08598370e-03
278 1 1.43675648 -0.00586797 0.32498364 6.07933546e-03
279 1 1.55612640 -0.00598974 0.34115741 6.08488133e-03
280 1 1.67398291 -0.00563498 0.35776811 6.08161608e-03
281 1 1.79282948 -0.00598187 0.37641405 6.08881076e-03
282 1 1.91186969 -0.00609017 0.39622504 6.09207793e-03
283 1 2.02868013 -0.00521690 0.41622057 6.09206431e-03
284 1 2.14750703 -0.00374346 0.43802250 6.09206920e-03
285 1 2.26548869 -0.00373548 0.46176872 6.09206749e-03
286 1 2.38353296 -0.00324672 0.48645771 6.09206826e-03
287 1 2.50144938 -0.00257121 0.51124276 6.09206901e-03
288 1 2.61930652 -0.00262087 0.53846754 6.08547783e-03
289 1 2.73633404 -0.00193143 0.56525441 6.07797420e-03
290 1 2.85329531 -0.00117563 0.59370897 6.08460882e-03
291 1 2.97046412 -0.00003894 0.62289500 6.08123045e-03
292 1 3.08739598 0.00060595 0.65375026 6.08867780e-03
293 1 3.20335796 0.00094824 0.68448185 6.09206866e-03
294 1 3.31972976 0.00080499 0.71637529 6.09206839e-03
295 1 3.43573070 0.00205153 0.74958499 6.09206833e-03
296 1 3.55171667 0.00243831 0.78357912 6.09206826e-03
297 1 3.66783876 0.00280928 0.81844189 6.09206824e-03
298 1 3.78304544 0.00308427 0.85360712 6.09206825e-03
299 1 3.89832946 0.00376018 0.88999822 6.10477040e-03
300 1 4.01301467 0.00480279 0.92663702 6.10144793e-03
301 1 4.12841038 0.00551348 0.96438161 6.09206826e-03
302 1 4.24341461 0.00619677 1.00274185 6.08473760e-03
303 1 4.35835054 0.00627372 1.04113062 6.07718969e-03
304 1 4.47305016 0.00623758 1.08073533 6.08430762e-03
305 1 4.58697478 0.00806018 1.12135546 6.08084602e-03
306 1 4.70077611 0.00850262 1.16233027 6.08857506e-03
307 1 4.81434978 0.00873759 1.20418781 6.09439460e-03
308 1 4.92779608 0.00913489 1.24673516 6.09360296e-03
309 1 5.04091818 0.01066944 1.28949028 6.10212083e-03
310 1 5.15357796 0.01108557 1.33305920 6.09455787e-03
311 1 5.26651186 0.01174169 1.37744692 6.08457013e-03
312 1 5.37925611 0.01265052 1.42237522 6.08334006e-03
313 1 5.49152070 0.01335700 1.46764126 6.09025173e-03
314 1 5.60379397 0.01375769 1.51368113 6.09206826e-03
315 1 5.71617692 0.01431753 1.56051224 6.09206826e-03
316 1 5.82789892 0.01519526 1.60754314 6.08838437e-03
317 1 5.93919490 0.01632844 1.65554701 6.09329454e-03
318 1 6.05019222 0.01623174 1.70378973 6.09400483e-03
319 1 6.16159854 0.01701823 1.75247365 6.08872179e-03
320 1 6.27284754 0.01788364 1.80161952 6.08812243e-03
321 1 6.38356490 0.01898404 1.85086156 6.09206826e-03
322 1 6.49413997 0.01965322 1.90123405 6.09206826e-03
323 1 6.60455310 0.02079760 1.95224510 6.09206826e-03
324 1 6.71455958 0.02147074 2.00332532 6.06302327e-03
325 1 6.82445708 0.02249475 2.05494240 6.06302327e-03
326 1 6.93422053 0.02332695 2.10686796 5.90236529e-03
327 1 7.04399923 0.02430079 2.15949005 5.81608564e-03
328 1 7.15364677 0.02543750 2.21242810 6.10035823e-03
329 1 7.26283624 0.02594316 2.26563520 5.08741347e-03
330 1 7.37254885 0.02669461 2.31904525 6.88423117e-03
331 1 7.48142712 0.02773708 2.37320462 4.95164977e-03
332 1 7.59013485 0.02862866 2.42703484 5.63292633e-03
333 1 7.69893931 0.02930577 2.48169405 5.95654755e-03
334 1 7.80766127 0.03015351 2.53656965 6.00432988e-03
335 1 7.91621677 0.03118999 2.59175490 6.08757506e-03
336 1 8.02455804 0.03208138 2.64729817 5.05700823e-03
337 1 8.13292228 0.03272054 2.70301056 6.83715280e-03
338 1 8.24105305 0.03379489 2.75894195 4.93632937e-03
339 1 8.34909885 0.03448440 2.81550490 5.62467055e-03
340 1 8.45687535 0.03517609 2.87202706 5.95386311e-03
341 1 8.56439453 0.03614518 2.92898165 6.00199927e-03
342 1 8.67207312 0.03704010 2.98627630 6.06987486e-03
343 1 8.77928590 0.03789159 3.04361912 5.01509653e-03
344 1 8.88681912 0.03891822 3.10129268 6.78511241e-03
345 1 8.99402449 0.03975076 3.15923658 4.92113473e-03
346 1 9.10105477 0.04060508 3.21763373 5.61645056e-03
347 1 9.20786363 0.04175639 3.27615892 5.95118153e-03
348 1 9.31473587 0.04260421 3.33480770 6.09206826e-03
349 1 9.42129048 0.04362650 3.39387194 6.09206826e-03
350 1 9.52796605 0.04453260 3.45293285 6.09206826e-03
351 1 9.63461606 0.04556051 3.51236207 6.50085567e-03
352 1 9.74111394 0.04651557 3.57185407 6.38496347e-03
353 1 9.84761906 0.04745711 3.63157263 5.77251663e-03
354 1 9.95383026 0.04840465 3.69140444 5.73476969e-03
355 1 10.06015672 0.04934569 3.75147066 5.94888879e-03
356 1 10.16629723 0.05013008 3.81165587 6.09206826e-03
357 1 10.27229711 0.05130028 3.87199968 6.09206826e-03
358 1 10.37826046 0.05223374 3.93262108 6.09206826e-03
359 1 10.48408897 0.05313427 3.99333287 6.09206826e-03
360 1 10.58968868 0.05423608 4.05427558 4.98457375e-03
361 1 10.69549058 0.05530995 4.11536989 6.69756871e-03
362 1 10.80118991 0.05639448 4.17660108 5.15375987e-03
363 1 10.90670864 0.05739578 4.23783557 4.95985007e-03
364 1 11.01223727 0.05841029 4.29920763 6.48212442e-03
365 1 11.11773274 0.05940320 4.36085375 5.14927068e-03
366 1 11.22312830 0.06052049 4.42249102 4.95341033e-03
367 1 11.32844847 0.06141019 4.48432406 6.46347279e-03
368 1 11.43371894 0.06262534 4.54615666 5.14043101e-03
369 1 11.53889954 0.06357996 4.60816539 4.91020010e-03
370 1 11.64419335 0.06469896 4.67027033 6.45556760e-03
371 1 11.74936895 0.06578113 4.73250023 4.90989307e-03
372 1 11.85447532 0.06681298 4.79480687 5.52395043e-03
373 1 11.95952744 0.06794798 4.85716698 5.87068470e-03
374 1 12.06450176 0.06903946 4.91961148 4.87920209e-03
375 1 12.16951661 0.07009739 4.98212167 6.41661913e-03
376 1 12.27445572 0.07121218 5.04472749 4.89988333e-03
377 1 12.37940839 0.07234237 5.10737540 5.51681014e-03
378 1 12.48430877 0.07345401 5.17011572 5.85936171e-03
379 1 12.58911241 0.07454318 5.23291290 4.85938456e-03
380 1 12.69395349 0.07567858 5.29573037 6.38254444e-03
381 1 12.79879964 0.07677925 5.35862486 4.88995824e-03
382 1 12.90357999 0.07791160 5.42159791 5.57476230e-03
383 1 13.00832006 0.07911502 5.48460624 5.93743790e-03
384 1 13.11304878 0.08019664 5.54763730 5.98766457e-03
385 1 13.21777705 0.08135550 5.61070949 5.96043235e-03
386 1 13.32247101 0.08252039 5.67384993 4.81637844e-03
387 1 13.42718334 0.08367068 5.73704109 6.34214196e-03
388 1 13.53188336 0.08484792 5.80022142 4.87620659e-03
389 1 13.63655736 0.08602011 5.86344201 5.56677439e-03
390 1 13.74122766 0.08717091 5.92667816 5.93477518e-03
391 1 13.84586888 0.08833725 5.98992828 5.98532808e-03
392 1 13.95050871 0.08953659 6.05324035 5.94249673e-03
393 1 14.05514311 0.09070297 6.11654509 4.79106117e-03
394 1 14.15976800 0.09188305 6.17987118 6.34873408e-03
395 1 14.26438573 0.09310080 6.24322146 5.10720957e-03
396 1 14.36901886 0.09429662 6.30657650 4.79385489e-03
397 1 14.47365298 0.09548600 6.36994405 6.33054845e-03
398 1 14.57828445 0.09670758 6.43330726 5.10009402e-03
399 1 14.68291477 0.09792006 6.49667647 4.78369059e-03
400 1 14.78754815 0.09913679 6.56004110 6.31203828e-03
401 1 14.89218273 0.10037918 6.62342095 5.09300092e-03
402 1 14.99683743 0.10161219 6.68679143 4.74903927e-03
403 1 15.10149609 0.10284443 6.75014270 6.32830758e-03
404 1 15.20613366 0.10408014 6.81351066 5.08343922e-03
405 1 15.31080284 0.10532025 6.87684044 4.32591159e-03
406 1 15.41548751 0.10658241 6.94016782 6.00104739e-03
407 1 15.52017107 0.10781277 7.00349176 5.21119202e-03
408 1 15.62489127 0.10909325 7.06682024 6.09206826e-03
409 1 15.72958772 0.11036892 7.13012244 6.05153388e-03
410 1 15.83432262 0.11162217 7.19340278 5.91774538e-03
411 1 15.93904548 0.11289639 7.25666707 6.22305381e-03
412 1 16.04379977 0.11415786 7.31989353 5.03791106e-03
413 1 16.14857892 0.11545354 7.38310239 4.72607940e-03
414 1 16.25335273 0.11670906 7.44628200 8.71836332e-03
415 1 16.35815420 0.11802950 7.50945107 5.95355142e-03
416 1 16.46296779 0.11930950 7.57260524 5.36960420e-03
417 1 16.56779365 0.12066118 7.63571989 6.03255871e-03
418 1 16.67265383 0.12194468 7.69881035 5.00245570e-03
419 1 16.77756648 0.12325850 7.76188652 4.70280803e-03
420 1 16.88246748 0.12452614 7.82488764 8.65685956e-03
421 1 16.98739039 0.12585674 7.88787265 5.94692135e-03
422 1 17.09230138 0.12719673 7.95084931 5.65886656e-03
423 1 17.19726404 0.12850372 8.01375118 5.98663784e-03
424 1 17.30229337 0.12982355 8.07663200 6.03862808e-03
425 1 17.40730645 0.13116742 8.13947460 6.08821513e-03
426 1 17.51231433 0.13248948 8.20227284 6.17296108e-03
427 1 17.61735202 0.13382742 8.26502209 6.04911048e-03
428 1 17.72242714 0.13512475 8.32777192 6.99423467e-03
429 1 17.82751663 0.13645346 8.39046083 6.49916941e-03
430 1 17.93261397 0.13781921 8.45312579 6.05139015e-03
431 1 18.03779007 0.13914915 8.51572307 6.07023001e-03
432 1 18.14294056 0.14052889 8.57832543 6.06423220e-03
433 1 18.24812061 0.14189110 8.64086428 6.03339671e-03
434 1 18.35330003 0.14327898 8.70337877 6.06123277e-03
435 1 18.45855343 0.14460738 8.76585127 6.05523286e-03
436 1 18.56380831 0.14600671 8.82827506 6.01539697e-03
437 1 18.66905802 0.14732909 8.89065011 6.05223237e-03
438 1 18.77432897 0.14873252 8.95302248 6.04623034e-03
439 1 18.87969401 0.15011519 9.01536434 5.99739088e-03
440 1 18.98501189 0.15149624 9.07760905 6.03386113e-03
441 1 19.09036656 0.15287104 9.13979634 6.06015229e-03
442 1 19.19578866 0.15427077 9.20198119 6.93292310e-03
443 1 19.30124710 0.15562635 9.26411467 6.60839364e-03
444 1 19.40669960 0.15702675 9.32619304 6.08325267e-03
445 1 19.51216662 0.15838712 9.38825050 5.98999100e-03
446 1 19.61764491 0.15976696 9.45023157 6.02220795e-03
447 1 19.72315862 0.16115512 9.51218899 5.94934321e-03
448 1 19.82869926 0.16258832 9.57410580 6.00521256e-03
449 1 19.93424294 0.16398401 9.63595771 5.96042100e-03
450 1 20.03984986 0.16535787 9.69781140 6.01327673e-03
451 1 20.14542889 0.16674195 9.75960677 6.06616825e-03
452 1 20.25105407 0.16815484 9.82136615 6.09206826e-03
453 1 20.35667990 0.16957987 9.88309889 6.22108889e-03
454 1 20.46231482 0.17098976 9.94479057 6.93510095e-03
455 1 20.56798815 0.17238682 10.00643815 6.55067958e-03
456 1 20.67370302 0.17380801 10.06806238 5.44215936e-03
457 1 20.77939131 0.17524095 10.12965940 5.52453627e-03
458 1 20.88510601 0.17662735 10.19120284 6.09206826e-03
459 1 20.99084669 0.17803037 10.25270994 5.52769247e-03
460 1 21.09658365 0.17945376 10.31419495 5.54504444e-03
461 1 21.20234941 0.18085730 10.37561971 6.09206826e-03
462 1 21.30815055 0.18229218 10.43704800 5.52433613e-03
463 1 21.41392679 0.18370501 10.49843090 5.54169116e-03
464 1 21.51973872 0.18508576 10.55979228 6.09959331e-03
465 1 21.62556336 0.18651630 10.62111650 5.37708140e-03
466 1 21.73137450 0.18794039 10.68243161 5.50601994e-03
467 1 21.83720267 0.18935344 10.74371660 6.09132348e-03
468 1 21.94305732 0.19077515 10.80498362 5.36406280e-03
469 1 22.04890396 0.19220142 10.86622763 5.50114066e-03
470 1 22.15476323 0.19361370 10.92746546 6.07613573e-03
471 1 22.26060658 0.19505154 10.98867355 5.86576563e-03
472 1 22.36646945 0.19647468 11.04987451 5.87763704e-03
473 1 22.47233698 0.19790180 11.11106264 5.79509293e-03
474 1 22.57818139 0.19933358 11.17223619 6.45795830e-03
475 1 22.68404588 0.20075462 11.23339710 6.36067877e-03
476 1 22.78990119 0.20219029 11.29455004 5.01672083e-03
477 1 0.12355941 1.20707235 -0.24455303 -5.06599779e-03
478 1 0.24738523 1.20594027 -0.24477320 -5.96099493e-03
479 1 0.37239331 1.20380242 -0.24224845 -6.06828787e-03
480 1 0.49747496 1.20449937 -0.23890526 -6.09081051e-03
481 1 0.62217905 1.20447448 -0.23337794 -6.09597885e-03
482 1 0.74681114 1.20488198 -0.22696278 -6.09677124e-03
483 1 0.87262357 1.20380230 -0.21827818 -6.09261604e-03
484 1 0.99740287 1.20479151 -0.20874351 -6.09210769e-03
485 1 1.12264158 1.20410367 -0.19618458 -6.09159289e-03
486 1 1.24656379 1.20444129 -0.18329542 -6.09258964e-03
487 1 1.37093706 1.20676028 -0.17010269 -6.11404233e-03
488 1 1.49458663 1.20728009 -0.15428054 -6.12924398e-03
489 1 1.61776446 1.20615301 -0.13762645 -6.13810471e-03
490 1 1.74120837 1.20664130 -0.12020111 -6.10740278e-03
491 1 1.86483415 1.20666153 -0.10079486 -6.11299929e-03
492 1 1.98798110 1.20737201 -0.07887769 -6.11651709e-03
493 1 2.11081247 1.20715306 -0.05823172 -6.10892752e-03
494 1 2.23352096 1.20923757 -0.03516638 -6.08383817e-03
495 1 2.35615830 1.21036046 -0.01058539 -6.07811671e-03
496 1 2.47763082 1.21032372 0.01547793 -6.12167487e-03
497 1 2.59891821 1.20999083 0.04165175 -6.12891596e-03
498 1 2.72050897 1.21136337 0.06871424 -6.13439434e-03
499 1 2.84199575 1.21255758 0.09794983 -6.11877956e-03
500 1 2.96286176 1.21225085 0.12773628 -6.09486572e-03
501 1 3.08330519 1.21355933 0.15835269 -6.09206826e-03
502 1 3.20420340 1.21404192 0.19020110 -6.09206855e-03
503 1 3.32388274 1.21453568 0.22309224 -6.09206932e-03
504 1 3.44271322 1.21535172 0.25657708 -6.11378764e-03
505 1 3.56315133 1.21725238 0.29111470 -6.10132488e-03
506 1 3.68141679 1.21813619 0.32645011 -6.14015253e-03
507 1 3.79997474 1.21826175 0.36208517 -6.18862768e-03
508 1 3.91776009 1.21956804 0.39951148 -6.20494803e-03
509 1 4.03585432 1.22018130 0.43652181 -6.16689241e-03
510 1 4.15325454 1.22080998 0.47497838 -6.13536340e-03
511 1 4.27086059 1.22135757 0.51365006 -6.09206826e-03
512 1 4.38799721 1.22197861 0.55305246 -6.09528258e-03
513 1 4.50534106 1.22324048 0.59301152 -6.10197805e-03
514 1 4.62257368 1.22366521 0.63390418 -6.09705471e-03
515 1 4.73887209 1.22473149 0.67556216 -6.06436498e-03
516 1 4.85539980 1.22494945 0.71844317 -6.12133674e-03
517 1 4.97103539 1.22612438 0.76117233 -6.20974613e-03
518 1 5.08674045 1.22729068 0.80478542 -6.24802334e-03
519 1 5.20184689 1.22825229 0.84914188 -6.19819175e-03
520 1 5.31723862 1.22831729 0.89419462 -6.15088270e-03
521 1 5.43239603 1.22928904 0.93988873 -6.13301438e-03
522 1 5.54685149 1.23081445 0.98608560 -6.10131989e-03
523 1 5.66150479 1.23152689 1.03302420 -6.05757291e-03
524 1 5.77554948 1.23278760 1.08034837 -6.04491082e-03
525 1 5.88892510 1.23338705 1.12856191 -6.05437557e-03
526 1 6.00277087 1.23478983 1.17695836 -6.06489385e-03
527 1 6.11586740 1.23589478 1.22578667 -6.09206826e-03
528 1 6.22879473 1.23702938 1.27536263 -6.09206826e-03
529 1 6.34157566 1.23740262 1.32547614 -6.09979510e-03
530 1 6.45391542 1.23839140 1.37598589 -6.12512692e-03
531 1 6.56630917 1.23968339 1.42683609 -6.16578501e-03
532 1 6.67831908 1.24020041 1.47854878 -6.26929389e-03
533 1 6.78983992 1.24117145 1.53009894 -6.28695529e-03
534 1 6.90190430 1.24263728 1.58198869 -6.28583704e-03
535 1 7.01328438 1.24329633 1.63452113 -6.23881179e-03
536 1 7.12471320 1.24431239 1.68772304 -6.30184580e-03
537 1 7.23559549 1.24537588 1.74112449 -6.28022129e-03
538 1 7.34642261 1.24645057 1.79474780 -6.24103982e-03
539 1 7.45721889 1.24754628 1.84877006 -6.33470904e-03
540 1 7.56774266 1.24801756 1.90358701 -6.28101331e-03