ITEM: TIMESTEP
0
ITEM: NUMBER OF ATOMS
10710
ITEM: BOX BOUNDS ff ff ff
-2.0 25.552335047649304
-2.0069571188711057 3.3225674278007347
-2.2458969132435396 12.48447546412517
ITEM: ATOMS id type x y z q
1 2 0.00000000 0.00000000 0.24527477 3.35542180e-03
2 2 0.00000000 0.00000000 -0.24472523 -3.35542180e-03
3 2 0.00000000 1.21000000 0.24527477 3.41686920e-03
4 2 0.00000000 1.21000000 -0.24472523 -3.41686920e-03
5 1 23.31243579 0.09723651 10.45275528 3.37776783e-03
6 1 23.55233505 0.11335830 10.02564546 -3.37776783e-03
7 1 23.28752840 1.30637281 10.48447546 3.41686920e-03
8 1 23.52740436 1.32256743 10.05736517 -3.41686920e-03
9 2 0.00000000 0.00000000 -0.12222523 0.00000000e+00
10 2 0.00000000 0.00000000 0.00027477 0.00000000e+00
11 2 0.00000000 0.00000000 0.12277477 0.00000000e+00
12 2 0.00000000 0.12100000 0.24527477 5.18139194e-03
13 2 0.00000000 0.24200000 0.24527477 5.50362000e-03
14 2 0.00000000 0.36300000 0.24527477 5.01501884e-03
15 2 0.00000000 0.48400000 0.24527477 5.50904170e-03
16 2 0.00000000 0.60500000 0.24527477 6.02408537e-03
17 2 0.00000000 0.72600000 0.24527477 6.86123120e-03
18 2 0.00000000 0.84700000 0.24527477 6.83241897e-03
19 2 0.00000000 0.96800000 0.24527477 5.84994208e-03
20 2 0.00000000 1.08900000 0.24527477 4.96878236e-03
21 2 0.00000000 1.21000000 -0.12222523 0.00000000e+00
22 2 0.00000000 1.21000000 0.00027477 0.00000000e+00
23 2 0.00000000 1.21000000 0.12277477 0.00000000e+00
24 2 0.00000000 0.12100000 -0.24472523 -5.18139194e-03
25 2 0.00000000 0.24200000 -0.24472523 -5.50362000e-03
26 2 0.00000000 0.36300000 -0.24472523 -5.01501884e-03
27 2 0.00000000 0.48400000 -0.24472523 -5.50904170e-03
28 2 0.00000000 0.60500000 -0.24472523 -6.02408537e-03
29 2 0.00000000 0.72600000 -0.24472523 -6.86123120e-03
30 2 0.00000000 0.84700000 -0.24472523 -6.83241897e-03
31 2 0.00000000 0.96800000 -0.24472523 -5.84994208e-03
32 2 0.00000000 1.08900000 -0.24472523 -4.96878236e-03
33 1 23.49235487 0.10932454 10.13242472 0.00000000e+00
34 1 23.43238064 0.10529325 10.23919879 0.00000000e+00
35 1 23.37240723 0.10126510 10.34597448 0.00000000e+00
36 1 23.30994900 0.21815130 10.45592211 5.05002864e-03
37 1 23.30746178 0.33906598 10.45908777 5.64089052e-03
38 1 23.30497351 0.45998047 10.46225562 5.44128437e-03
39 1 23.30249653 0.58089543 10.46542475 6.40224548e-03
40 1 23.29999760 0.70180764 10.46859463 6.88148315e-03
41 1 23.29750895 0.82271981 10.47176193 6.11583422e-03
42 1 23.29501443 0.94363495 10.47493643 5.69198232e-03
43 1 23.29251200 1.06455166 10.47811943 6.01735171e-03
44 1 23.29001713 1.18546333 10.48129611 5.43527194e-03
45 1 23.46743236 1.31851982 10.16414287 0.00000000e+00
46 1 23.40746199 1.31447149 10.27091610 0.00000000e+00
47 1 23.34749367 1.31042240 10.37769245 0.00000000e+00
48 1 23.54984280 0.23427415 10.02881520 -5.05002864e-03
49 1 23.54735420 0.35519584 10.03198905 -5.64089052e-03
50 1 23.54486202 0.47611468 10.03514530 -5.44128437e-03
51 1 23.54237391 0.59703606 10.03830806 -6.40224548e-03
52 1 23.53988559 0.71795842 10.04147995 -6.88148315e-03
53 1 23.53739370 0.83888392 10.04466543 -6.11583422e-03
54 1 23.53489756 0.95980973 10.04783141 -5.69198232e-03
55 1 23.53239974 1.08073204 10.05101080 -6.01735171e-03
56 1 23.52990494 1.20165009 10.05419085 -5.43527194e-03
57 1 0.12372973 0.00295315 -0.24589691 -4.80862070e-03
58 1 0.24785772 0.00524484 -0.24506910 -5.62714142e-03
59 1 0.37205719 0.00559464 -0.24364742 -6.00619986e-03
60 1 0.49700383 0.00552406 -0.24122687 -6.09052560e-03
61 1 0.62138449 0.00566812 -0.23749778 -6.09206826e-03
62 1 0.74589358 0.00681078 -0.23267100 -5.94781856e-03
63 1 0.87019244 0.00797183 -0.22696493 -5.82025544e-03
64 1 0.99428726 0.00726358 -0.21805914 -5.95871849e-03
65 1 1.11957673 0.00753819 -0.20950887 -6.09232315e-03
66 1 1.24408838 0.00714686 -0.20015511 -6.09205550e-03
67 1 1.36799065 0.00758538 -0.18904577 -6.08598370e-03
68 1 1.49197490 0.00859891 -0.17559471 -6.07933546e-03
69 1 1.61570492 0.00889601 -0.16309883 -6.08488133e-03
70 1 1.73927810 0.00890575 -0.14858738 -6.08161608e-03
71 1 1.86252961 0.00905065 -0.13314784 -6.08881076e-03
72 1 1.98674235 0.00893735 -0.11626396 -6.09207793e-03
73 1 2.11024918 0.00930369 -0.09881032 -6.09206431e-03
74 1 2.23348778 0.01026587 -0.07944806 -6.09206920e-03
75 1 2.35651494 0.01032110 -0.05971242 -6.09206749e-03
76 1 2.47895613 0.01018213 -0.03905776 -6.09206826e-03
77 1 2.60107861 0.01038288 -0.01759179 -6.09206901e-03
78 1 2.72357083 0.00968217 0.00462361 -6.08547783e-03
79 1 2.84550837 0.01024907 0.02780149 -6.07797420e-03
80 1 2.96725888 0.01150874 0.05197640 -6.08460882e-03
81 1 3.08891581 0.01119671 0.07685968 -6.08123045e-03
82 1 3.21010477 0.01168486 0.10292381 -6.08867780e-03
83 1 3.33097308 0.01211323 0.12978258 -6.09206866e-03
84 1 3.45207991 0.01246943 0.15762460 -6.09206839e-03
85 1 3.57262204 0.01223962 0.18566566 -6.09206833e-03
86 1 3.69327166 0.01207335 0.21493811 -6.09206826e-03
87 1 3.81393201 0.01307677 0.24489686 -6.09206824e-03
88 1 3.93398805 0.01357801 0.27518432 -6.09206825e-03
89 1 4.05406476 0.01324444 0.30597679 -6.10477040e-03
90 1 4.17386623 0.01414968 0.33766139 -6.10144793e-03
91 1 4.29297289 0.01443774 0.37015533 -6.09206826e-03
92 1 4.41266004 0.01458107 0.40295214 -6.08473760e-03
93 1 4.53139324 0.01485471 0.43646388 -6.07718969e-03
94 1 4.65021379 0.01549534 0.47092741 -6.08430762e-03
95 1 4.76879988 0.01615487 0.50565437 -6.08084602e-03
96 1 4.88750166 0.01633874 0.54076014 -6.08857506e-03
97 1 5.00602502 0.01730189 0.57694109 -6.09439460e-03
98 1 5.12426160 0.01720010 0.61366687 -6.09360296e-03
99 1 5.24197262 0.01772346 0.65143601 -6.10212083e-03
100 1 5.35987960 0.01787028 0.68924827 -6.09455787e-03
101 1 5.47713402 0.01886665 0.72748502 -6.08457013e-03
102 1 5.59426536 0.01911975 0.76647652 -6.08334006e-03
103 1 5.71178446 0.01938060 0.80648387 -6.09025173e-03
104 1 5.82832989 0.01980926 0.84652810 -6.09206826e-03
105 1 5.94497210 0.02023353 0.88701984 -6.09206826e-03
106 1 6.06136094 0.02111802 0.92817472 -6.08838437e-03
107 1 6.17739112 0.02156061 0.96970653 -6.09329454e-03
108 1 6.29384396 0.02155482 1.01170020 -6.09400483e-03
109 1 6.40976924 0.02228812 1.05427205 -6.08872179e-03
110 1 6.52560857 0.02302007 1.09772939 -6.08812243e-03
111 1 6.64076407 0.02351929 1.14130509 -6.09206826e-03
112 1 6.75622263 0.02392416 1.18506390 -6.09206826e-03
113 1 6.87114016 0.02434003 1.22920917 -6.09206826e-03
114 1 6.98570204 0.02500782 1.27426248 -6.06302327e-03
115 1 7.10045505 0.02500175 1.31957239 -6.06302327e-03
116 1 7.21508602 0.02551914 1.36549397 -5.90236529e-03
117 1 7.32927876 0.02608274 1.41176918 -5.81608564e-03
118 1 7.44333542 0.02659327 1.45821110 -6.10035823e-03
119 1 7.55736319 0.02703871 1.50514047 -5.08741334e-03
120 1 7.67100749 0.02746214 1.55235989 -6.87719096e-03
121 1 7.78439930 0.02809985 1.59988778 -5.18694999e-03
122 1 7.89820209 0.02826427 1.64767123 -5.00655937e-03
123 1 8.01130181 0.02886627 1.69596619 -7.17602109e-03
124 1 8.12441466 0.02965411 1.74454484 -5.64123658e-03
125 1 8.23769827 0.03023037 1.79350385 -5.91249038e-03
126 1 8.35034621 0.03057224 1.84261879 -5.77202514e-03
127 1 8.46294838 0.03110667 1.89203728 -5.95689302e-03
128 1 8.57567557 0.03178266 1.94183025 -6.09206826e-03
129 1 8.68808308 0.03197986 1.99202437 -6.09206826e-03
130 1 8.80025899 0.03250598 2.04236659 -6.09206826e-03
131 1 8.91231676 0.03312304 2.09292519 -6.00199927e-03
132 1 9.02444356 0.03406740 2.14384333 -6.06987486e-03
133 1 9.13635064 0.03462368 2.19509770 -5.02835518e-03
134 1 9.24801142 0.03507733 2.24657704 -6.79157831e-03
135 1 9.35931937 0.03586359 2.29849553 -4.92113473e-03
136 1 9.47086785 0.03615460 2.35055624 -5.56259368e-03
137 1 9.58223292 0.03649101 2.40304038 -5.94323360e-03
138 1 9.69336624 0.03726246 2.45592370 -5.00637084e-03
139 1 9.80418254 0.03763388 2.50863037 -6.75640181e-03
140 1 9.91495747 0.03793600 2.56168908 -4.91035923e-03
141 1 10.02554664 0.03844514 2.61506046 -5.75765677e-03
142 1 10.13620022 0.03901198 2.66849223 -6.37465021e-03
143 1 10.24673232 0.03973925 2.72210936 -6.33172667e-03
144 1 10.35705773 0.04034266 2.77594151 -5.77695765e-03
145 1 10.46745272 0.04110379 2.82999765 -5.75602868e-03
146 1 10.57765127 0.04155704 2.88416014 -5.94989338e-03
147 1 10.68753191 0.04201222 2.93875517 -6.09206826e-03
148 1 10.79748522 0.04277827 2.99352599 -6.09206826e-03
149 1 10.90730957 0.04315669 3.04850694 -6.49862787e-03
150 1 11.01704480 0.04381195 3.10375259 -6.47806478e-03
151 1 11.12669230 0.04417611 3.15899848 -5.98398651e-03
152 1 11.23626187 0.04485608 3.21458370 -5.97118729e-03
153 1 11.34565071 0.04526109 3.27018062 -6.32827249e-03
154 1 11.45500296 0.04583954 3.32588479 -6.38296841e-03
155 1 11.56428962 0.04662396 3.38178723 -6.09206826e-03
156 1 11.67339587 0.04698352 3.43796558 -5.92176613e-03
157 1 11.78240346 0.04758986 3.49416462 -5.84196899e-03
158 1 11.89123416 0.04811352 3.55047252 -5.89327746e-03
159 1 12.00014583 0.04873385 3.60713718 -4.96011300e-03
160 1 12.10890700 0.04931087 3.66377316 -6.65158567e-03
161 1 12.21756559 0.04986786 3.72063479 -4.90989307e-03
162 1 12.32633408 0.05041451 3.77754974 -5.52395043e-03
163 1 12.43488571 0.05109222 3.83464215 -5.87068470e-03
164 1 12.54335308 0.05164653 3.89180861 -4.88602194e-03
165 1 12.65171847 0.05225463 3.94910964 -6.40279006e-03
166 1 12.76004913 0.05279597 4.00649161 -5.12407601e-03
167 1 12.86829241 0.05332569 4.06402747 -4.88216806e-03
168 1 12.97649447 0.05387271 4.12163580 -6.38017819e-03
169 1 13.08460243 0.05457217 4.17936649 -5.11373203e-03
170 1 13.19264993 0.05509588 4.23720398 -4.85398664e-03
171 1 13.30068302 0.05564575 4.29515306 -6.35577596e-03
172 1 13.40855045 0.05631078 4.35320583 -5.10698016e-03
173 1 13.51649467 0.05678155 4.41130022 -4.85870271e-03
174 1 13.62426914 0.05737021 4.46959898 -6.37702085e-03
175 1 13.73206582 0.05785713 4.52785527 -5.10092274e-03
176 1 13.83977961 0.05849134 4.58622653 -4.84968636e-03
177 1 13.94740537 0.05910599 4.64469703 -6.37599125e-03
178 1 14.05505489 0.05969497 4.70324262 -4.87710407e-03
179 1 14.16264829 0.06029050 4.76189336 -5.56677439e-03
180 1 14.27020164 0.06079291 4.82058056 -5.93477518e-03
181 1 14.37767411 0.06143816 4.87937562 -6.09206826e-03
182 1 14.48512455 0.06199052 4.93820359 -6.09206826e-03
183 1 14.59250671 0.06260903 4.99709803 -5.98211588e-03
184 1 14.69981867 0.06317615 5.05606175 -5.88223740e-03
185 1 14.80711470 0.06378226 5.11514302 -5.93479953e-03
186 1 14.91439112 0.06426361 5.17426438 -4.77734034e-03
187 1 15.02157667 0.06486542 5.23341713 -6.31776323e-03
188 1 15.12876014 0.06549889 5.29260534 -4.85845554e-03
189 1 15.23592127 0.06610469 5.35189602 -5.48045656e-03
190 1 15.34302520 0.06667224 5.41121626 -5.74774533e-03
191 1 15.45006112 0.06722619 5.47058863 -5.91938606e-03
192 1 15.55710314 0.06779023 5.53006029 -4.72601755e-03
193 1 15.66411291 0.06839649 5.58955218 -6.44309587e-03
194 1 15.77107040 0.06898682 5.64904123 -5.21392668e-03
195 1 15.87803142 0.06957050 5.70855176 -4.32492230e-03
196 1 15.98496496 0.07015324 5.76813829 -6.11554878e-03
197 1 16.09183993 0.07073887 5.82777024 -5.20526136e-03
198 1 16.19874173 0.07134032 5.88744544 -4.31230685e-03
199 1 16.30556992 0.07192463 5.94711134 -6.11716232e-03
200 1 16.41236271 0.07255276 6.00685234 -5.69773107e-03
201 1 16.51917362 0.07310285 6.06660693 -5.99314584e-03
202 1 16.62595858 0.07371318 6.12640436 -4.76350900e-03
203 1 16.73269607 0.07429306 6.18624065 -5.21120302e-03
204 1 16.83944171 0.07489470 6.24607321 -6.01204532e-03
205 1 16.94614549 0.07547523 6.30593064 -5.73233737e-03
206 1 17.05285545 0.07603721 6.36582441 -5.81943467e-03
207 1 17.15951958 0.07664791 6.42573396 -6.32655047e-03
208 1 17.26620104 0.07723639 6.48567130 -5.03614005e-03
209 1 17.37285213 0.07782696 6.54560136 -4.70280803e-03
210 1 17.47946779 0.07841294 6.60557812 -8.65683464e-03
211 1 17.58609543 0.07902667 6.66555508 -5.94692004e-03
212 1 17.69269447 0.07962515 6.72555031 -5.65885778e-03
213 1 17.79930892 0.08021818 6.78556084 -5.99277035e-03
214 1 17.90589675 0.08080502 6.84557807 -6.04066598e-03
215 1 18.01247216 0.08139561 6.90560100 -6.09206826e-03
216 1 18.11904820 0.08201611 6.96564118 -6.09206826e-03
217 1 18.22560366 0.08261823 7.02568319 -6.09206826e-03
218 1 18.33216373 0.08320503 7.08573683 -5.94140402e-03
219 1 18.43870964 0.08380220 7.14579564 -6.09135703e-03
220 1 18.54524754 0.08440729 7.20586102 -6.09135703e-03
221 1 18.65178661 0.08500482 7.26593467 -6.09206826e-03
222 1 18.75831631 0.08561071 7.32600270 -6.22362401e-03
223 1 18.86483760 0.08622038 7.38607544 -6.30618064e-03
224 1 18.97136055 0.08682557 7.44615268 -6.16079228e-03
225 1 19.07787703 0.08742611 7.50623262 -6.90076158e-03
226 1 19.18438892 0.08803075 7.56631264 -7.19612184e-03
227 1 19.29089970 0.08863686 7.62639407 -6.17999120e-03
228 1 19.39740630 0.08924565 7.68647381 -5.85545161e-03
229 1 19.50390915 0.08985004 7.74655524 -6.04373412e-03
230 1 19.61041033 0.09045194 7.80663498 -6.05837687e-03
231 1 19.71691514 0.09106819 7.86670378 -6.22625934e-03
232 1 19.82341902 0.09167628 7.92677311 -6.96326852e-03
233 1 19.92991441 0.09228521 7.98684061 -6.60839364e-03
234 1 20.03641391 0.09289429 8.04690164 -6.08325267e-03
235 1 20.14292124 0.09351063 8.10695675 -5.98999100e-03
236 1 20.24942262 0.09411614 8.16701360 -6.02220795e-03
237 1 20.35592957 0.09473675 8.22705679 -5.94934321e-03
238 1 20.46243771 0.09535151 8.28709807 -6.23085673e-03
239 1 20.56894778 0.09596464 8.34714060 -5.91383044e-03
240 1 20.67545507 0.09657956 8.40716677 -5.82022831e-03
241 1 20.78196561 0.09719923 8.46719334 -6.06616825e-03
242 1 20.88848004 0.09781953 8.52720745 -6.09206826e-03
243 1 20.99500009 0.09843484 8.58722326 -6.22108889e-03
244 1 21.10151750 0.09903574 8.64722941 -6.93510095e-03
245 1 21.20804504 0.09965281 8.70722357 -6.55067958e-03
246 1 21.31456633 0.10027870 8.76721444 -5.44215936e-03
247 1 21.42109909 0.10089451 8.82720170 -5.52453627e-03
248 1 21.52762873 0.10150306 8.88717895 -6.11677386e-03
249 1 21.63417234 0.10212766 8.94714719 -5.40422112e-03
250 1 21.74071060 0.10275587 9.00710827 -5.51625079e-03
251 1 21.84725257 0.10337343 9.06706308 -6.10817079e-03
252 1 21.95379978 0.10399583 9.12700902 -5.39058303e-03
253 1 22.06034682 0.10461235 9.18695093 -5.51111698e-03
254 1 22.16689584 0.10523927 9.24688752 -6.09959331e-03
255 1 22.27345527 0.10586638 9.30681947 -5.37708140e-03
256 1 22.38001223 0.10647242 9.36673983 -5.50601994e-03
257 1 22.48657257 0.10709484 9.42666367 -6.09132348e-03
258 1 22.59313797 0.10772212 9.48657703 -5.36406280e-03
259 1 22.69970346 0.10834231 9.54648538 -5.50114066e-03
260 1 22.80628115 0.10897125 9.60639150 -6.07613573e-03
261 1 22.91285364 0.10959283 9.66629562 -5.86576563e-03
262 1 23.01943627 0.11022873 9.72618938 -5.87763703e-03
263 1 23.12601325 0.11085731 9.78608354 -5.79509293e-03
264 1 23.23259721 0.11148584 9.84597503 -6.45795830e-03
265 1 23.33917539 0.11210914 9.90586575 -6.36067877e-03
266 1 23.44575433 0.11273291 9.96575678 -5.01672083e-03
267 1 0.12115171 -0.00234814 0.24384765 4.80862070e-03
268 1 0.24207591 -0.00446307 0.24397894 5.62714142e-03
269 1 0.36289828 -0.00452431 0.24490219 6.00619986e-03
270 1 0.48343934 -0.00479534 0.24837386 6.09052560e-03
271 1 0.60289048 -0.00616815 0.25203221 6.09206826e-03
272 1 0.72351465 -0.00681035 0.25642899 5.94781856e-03
273 1 0.84387159 -0.00695712 0.26300745 5.82025544e-03
274 1 0.96322546 -0.00561642 0.26976285 5.95871849e-03
275 1 1.08264561 -0.00540079 0.27836573 6.09232315e-03
276 1 1.20258085 -0.00557186 0.28872285 6.09205550e-03
277 1 1.32230532 -0.00485863 0.29886083 6.08598370e-03
278 1 1.44241822 -0.00527428 0.31005464 6.07933546e-03
279 1 1.56242378 -0.00544661 0.32329122 6.08488133e-03
280 1 1.68117048 -0.00523535 0.33694725 6.08161608e-03
281 1 1.80076655 -0.00560609 0.35227979 6.08881076e-03
282 1 1.92056247 -0.00578859 0.36856430 6.09207793e-03
283 1 2.03849516 -0.00514902 0.38507043 6.09206431e-03
284 1 2.15815401 -0.00400163 0.40304394 6.09206920e-03
285 1 2.27715863 -0.00409453 0.42266188 6.09206749e-03
286 1 2.39624136 -0.00378849 0.44309464 6.09206826e-03
287 1 2.51521544 -0.00332763 0.46361208 6.09206901e-03
288 1 2.63421624 -0.00349631 0.48618202 6.08547783e-03
289 1 2.75248502 -0.00304431 0.50841747 6.07797420e-03
290 1 2.87075903 -0.00252327 0.53207097 6.08460882e-03
291 1 2.98923835 -0.00168229 0.55634151 6.08123045e-03
292 1 3.10756320 -0.00126457 0.58205198 6.08867780e-03
293 1 3.22505757 -0.00110707 0.60770148 6.09206866e-03
294 1 3.34292609 -0.00137480 0.63432893 6.09206839e-03
295 1 3.46053989 -0.00045638 0.66210449 6.09206833e-03
296 1 3.57815250 -0.00027416 0.69056806 6.09206826e-03
297 1 3.69592867 -0.00010952 0.71976915 6.09206824e-03
298 1 3.81291339 -0.00004161 0.74928224 6.09206825e-03
299 1 3.93000484 0.00037664 0.77985189 6.10477040e-03
300 1 4.04659135 0.00111477 0.81066829 6.10144793e-03
301 1 4.16384401 0.00155204 0.84241832 6.09206826e-03
302 1 4.28077865 0.00196834 0.87473685 6.08473760e-03
303 1 4.39764406 0.00183824 0.90708684 6.07718969e-03
304 1 4.51435397 0.00160678 0.94052082 6.08430762e-03
305 1 4.63043679 0.00302971 0.97487765 6.08084602e-03
306 1 4.74640894 0.00321935 1.00957206 6.08857506e-03
307 1 4.86221472 0.00322404 1.04507767 6.09439460e-03
308 1 4.97794557 0.00336065 1.08119490 6.09360296e-03
309 1 5.09340081 0.00451900 1.11750403 6.10212083e-03
310 1 5.20845769 0.00465864 1.15458637 6.09455787e-03
311 1 5.32380675 0.00501982 1.19238920 6.08457013e-03
312 1 5.43900646 0.00560371 1.23069446 6.08334006e-03
313 1 5.55379078 0.00601031 1.26933489 6.09025173e-03
314 1 5.66861390 0.00612281 1.30868327 6.09206826e-03
315 1 5.78358004 0.00637653 1.34875929 6.09206826e-03
316 1 5.89794808 0.00692799 1.38905717 6.08838437e-03
317 1 6.01195865 0.00771341 1.43027213 6.09329454e-03
318 1 6.12569608 0.00734234 1.47173644 6.09400483e-03
319 1 6.23985008 0.00779194 1.51358483 6.08872179e-03
320 1 6.35388315 0.00831439 1.55587068 6.08812243e-03
321 1 6.46740638 0.00905013 1.59828721 6.09206826e-03
322 1 6.58086452 0.00939166 1.64177555 6.09206826e-03
323 1 6.69420410 0.01016996 1.68587130 6.09206826e-03
324 1 6.80715241 0.01049908 1.73006881 6.06302327e-03
325 1 6.92002540 0.01115775 1.77477341 6.06302327e-03
326 1 7.03278206 0.01162933 1.81978831 5.90236529e-03
327 1 7.14559359 0.01223548 1.86546575 5.81608564e-03
328 1 7.25828971 0.01299646 1.91147229 6.10035823e-03
329 1 7.37054290 0.01314011 1.95777979 5.08741347e-03
330 1 7.48332338 0.01352538 2.00425849 6.88423117e-03
331 1 7.59532919 0.01419434 2.05151584 4.95164977e-03
332 1 7.70714042 0.01470542 2.09845380 5.63292633e-03
333 1 7.81909110 0.01499292 2.14621889 5.95654755e-03
334 1 7.93097851 0.01545791 2.19420275 6.00432988e-03
335 1 8.04270443 0.01610163 2.24250017 6.08757506e-03
336 1 8.15423814 0.01660592 2.29118901 5.05700823e-03
337 1 8.26579513 0.01683551 2.34005057 6.83715280e-03
338 1 8.37712891 0.01751198 2.38914568 4.93632937e-03
339 1 8.48841913 0.01778013 2.43889702 5.62467055e-03
340 1 8.59941581 0.01805103 2.48862606 5.95386311e-03
341 1 8.71016585 0.01860835 2.53880894 6.00199927e-03
342 1 8.82110594 0.01908340 2.58934992 6.06987486e-03
343 1 8.93153484 0.01950943 2.63997735 5.01509653e-03
344 1 9.04234093 0.02012721 2.69093335 6.78511241e-03
345 1 9.15279366 0.02052186 2.74220061 4.92113473e-03
346 1 9.26309291 0.02093360 2.79397342 5.61645056e-03
347 1 9.37315607 0.02167047 2.84589395 5.95118153e-03
348 1 9.48328449 0.02207649 2.89795666 6.09206826e-03
349 1 9.59308644 0.02266507 2.95048312 6.09206826e-03
350 1 9.70302206 0.02312202 3.00301895 6.09206826e-03
351 1 9.81295065 0.02371672 3.05596400 6.50085567e-03
352 1 9.92271610 0.02422307 3.10898969 6.38496347e-03
353 1 10.03249938 0.02470527 3.16227089 5.77251663e-03
354 1 10.14193152 0.02517959 3.21570688 5.73476969e-03
355 1 10.25151373 0.02564785 3.26941753 5.94888879e-03
356 1 10.36088623 0.02591727 3.32328208 6.09206826e-03
357 1 10.47009072 0.02664541 3.37734461 6.09206826e-03
358 1 10.57926881 0.02709326 3.43173857 6.09206826e-03
359 1 10.68828702 0.02748681 3.48625062 6.09206826e-03
360 1 10.79702856 0.02813211 3.54106616 4.98457375e-03
361 1 10.90602609 0.02874397 3.59606576 6.69756871e-03
362 1 11.01490610 0.02935948 3.65123822 5.15375987e-03
363 1 11.12354361 0.02986011 3.70642728 4.95985007e-03
364 1 11.23219894 0.03037199 3.76179715 6.48212442e-03
365 1 11.34083935 0.03083482 3.81753233 5.14927068e-03
366 1 11.44933465 0.03147871 3.87326012 4.95341033e-03
367 1 11.55772471 0.03179056 3.92926307 6.46347279e-03
368 1 11.66604191 0.03255960 3.98526503 5.14043101e-03
369 1 11.77424106 0.03295070 4.04152350 4.91020010e-03
370 1 11.88260834 0.03357852 4.09791844 6.45556760e-03
371 1 11.99081748 0.03413079 4.15449227 4.90989307e-03
372 1 12.09891822 0.03460902 4.21118921 5.52395043e-03
373 1 12.20694125 0.03524147 4.26797885 5.87068470e-03
374 1 12.31483022 0.03580511 4.32491316 4.87920209e-03
375 1 12.42278353 0.03630241 4.38194780 6.41661913e-03
376 1 12.53062553 0.03687619 4.43912553 4.89988333e-03
377 1 12.63848245 0.03748900 4.49637485 5.51681014e-03
378 1 12.74625631 0.03805799 4.55379069 5.85936171e-03
379 1 12.85385745 0.03856784 4.61132196 4.85938456e-03
380 1 12.96150389 0.03916162 4.66887688 6.38254444e-03
381 1 13.06918204 0.03964791 4.72658083 4.88995824e-03
382 1 13.17672993 0.04021477 4.78445396 5.57476230e-03
383 1 13.28419687 0.04091703 4.84239562 5.93743790e-03
384 1 13.39162576 0.04132550 4.90038398 5.98766457e-03
385 1 13.49905403 0.04191362 4.95845546 5.96043235e-03
386 1 13.60639404 0.04253966 5.01670450 4.81637844e-03
387 1 13.71375797 0.04307248 5.07507318 6.34214196e-03
388 1 13.82109470 0.04367832 5.13340712 4.87620659e-03
389 1 13.92835480 0.04426117 5.19184274 5.56677439e-03
390 1 14.03559408 0.04476814 5.25034445 5.93477518e-03
391 1 14.14273303 0.04533134 5.30893679 5.98532808e-03
392 1 14.24987201 0.04595187 5.36764867 5.94249673e-03
393 1 14.35695751 0.04646731 5.42638555 4.79106117e-03
394 1 14.46401698 0.04700069 5.48523742 6.34873408e-03
395 1 14.57100378 0.04769628 5.54414150 5.10720957e-03
396 1 14.67798537 0.04819308 5.60312617 4.79385489e-03
397 1 14.78498279 0.04872363 5.66214570 6.33054845e-03
398 1 14.89195442 0.04927373 5.72127978 5.10009402e-03
399 1 14.99882704 0.04986200 5.78038364 4.78369059e-03
400 1 15.10576918 0.05049356 5.83960180 6.31203828e-03
401 1 15.21264249 0.05107054 5.89886393 5.09300092e-03
402 1 15.31944351 0.05167376 5.95815695 4.74903927e-03
403 1 15.42624370 0.05224852 6.01755654 6.32830758e-03
404 1 15.53308428 0.05284370 6.07697195 5.08343922e-03
405 1 15.63985520 0.05341448 6.13646247 4.32591159e-03
406 1 15.74660601 0.05395732 6.19593431 6.00104739e-03
407 1 15.85335189 0.05459340 6.25549576 5.21119202e-03
408 1 15.96003517 0.05514009 6.31504178 6.09206826e-03
409 1 16.06675723 0.05572007 6.37466918 6.05153388e-03
410 1 16.17342224 0.05633173 6.43430536 5.91774538e-03
411 1 16.28010929 0.05690407 6.49399303 6.22305381e-03
412 1 16.38676021 0.05751284 6.55374089 5.03791106e-03
413 1 16.49338761 0.05809424 6.61350174 4.72607940e-03
414 1 16.60002908 0.05869456 6.67328460 8.71836332e-03
415 1 16.70664390 0.05927202 6.73310207 5.95355142e-03
416 1 16.81324684 0.05988441 6.79293835 5.36960420e-03
417 1 16.91983483 0.06044562 6.85279844 6.03255871e-03
418 1 17.02641499 0.06104660 6.91266868 5.00245570e-03
419 1 17.13297710 0.06163300 6.97256460 4.70280803e-03
420 1 17.23953792 0.06225113 7.03249773 8.65685956e-03
421 1 17.34608653 0.06284991 7.09245184 5.94692135e-03
422 1 17.45264100 0.06344275 7.15241566 5.65886656e-03
423 1 17.55918363 0.06404467 7.21240187 5.98663784e-03
424 1 17.66570561 0.06464393 7.27239386 6.03862808e-03
425 1 17.77223927 0.06523784 7.33238961 6.08821513e-03
426 1 17.87877514 0.06584179 7.39240389 6.17296108e-03
427 1 17.98530019 0.06644148 7.45243735 6.04911048e-03
428 1 18.09181511 0.06705665 7.51246882 6.99423467e-03
429 1 18.19832895 0.06765564 7.57251285 6.49916941e-03
430 1 18.30483983 0.06825923 7.63256786 6.05139015e-03
431 1 18.41134094 0.06887066 7.69263051 6.07023001e-03
432 1 18.51785456 0.06947301 7.75268831 6.06423220e-03
433 1 18.62436232 0.07007868 7.81275430 6.03339671e-03
434 1 18.73087592 0.07068516 7.87282157 6.06123277e-03
435 1 18.83737862 0.07129956 7.93289982 6.05523286e-03
436 1 18.94388434 0.07190725 7.99297688 6.01539697e-03
437 1 19.05038702 0.07251666 8.05305927 6.05223237e-03
438 1 19.15689341 0.07312682 8.11313777 6.04623034e-03
439 1 19.26339858 0.07374483 8.17322767 5.99739088e-03
440 1 19.36990306 0.07435973 8.23331041 6.03386113e-03
441 1 19.47640860 0.07496962 8.29338903 6.06015229e-03
442 1 19.58292063 0.07558047 8.35346169 6.93292310e-03
443 1 19.68943223 0.07619480 8.41354051 6.60839364e-03
444 1 19.79594646 0.07680566 8.47360921 6.08325267e-03
445 1 19.90245973 0.07741751 8.53368084 5.98999100e-03
446 1 20.00897554 0.07802874 8.59373993 6.02220795e-03
447 1 20.11549643 0.07864411 8.65379717 5.94934321e-03
448 1 20.22202323 0.07926473 8.71384978 6.00521256e-03
449 1 20.32854646 0.07988450 8.77390246 5.96042100e-03
450 1 20.43508323 0.08049427 8.83394484 6.01327673e-03
451 1 20.54161061 0.08111442 8.89398756 6.06616825e-03
452 1 20.64815366 0.08172857 8.95401558 6.09206826e-03
453 1 20.75469060 0.08235495 9.01405014 6.22108889e-03
454 1 20.86123179 0.08297355 9.07407173 6.93510095e-03
455 1 20.96777958 0.08358692 9.13408186 6.55067958e-03
456 1 21.07433237 0.08421085 9.19408960 5.44215936e-03
457 1 21.18088324 0.08483565 9.25409262 5.52453627e-03
458 1 21.28743945 0.08544890 9.31408569 6.09206826e-03
459 1 21.39399718 0.08606719 9.37407031 5.52769247e-03
460 1 21.50055385 0.08668580 9.43404764 5.54504444e-03
461 1 21.60711884 0.08730157 9.49401499 6.09206826e-03
462 1 21.71369094 0.08792644 9.55398048 5.52433613e-03
463 1 21.82025949 0.08854436 9.61393579 5.54169116e-03
464 1 21.92683666 0.08915211 9.67388339 6.09959331e-03
465 1 22.03341938 0.08977123 9.73381895 5.37708140e-03
466 1 22.13999531 0.09039481 9.79376133 5.50601994e-03
467 1 22.24657505 0.09100969 9.85369411 6.09132348e-03
468 1 22.35316187 0.09163082 9.91362035 5.36406280e-03
469 1 22.45974887 0.09225405 9.97354084 5.50114066e-03
470 1 22.56633801 0.09287109 10.03345785 6.07613573e-03
471 1 22.67292191 0.09349793 10.09336956 5.86576563e-03
472 1 22.77951128 0.09412056 10.15327898 5.87763704e-03
473 1 22.88610323 0.09474492 10.21318142 5.79509293e-03
474 1 22.99268052 0.09536809 10.27308276 6.45795830e-03
475 1 23.09926978 0.09598682 10.33297530 6.36067877e-03
476 1 23.20585404 0.09661429 10.39286615 5.01672083e-03
477 1 0.12333390 1.20760633 -0.24460061 -5.06599779e-03
478 1 0.24688012 1.20667720 -0.24479571 -5.96099493e-03
479 1 0.37139136 1.20491422 -0.24278231 -6.06828787e-03
480 1 0.49596880 1.20546613 -0.24010344 -6.09081051e-03
481 1 0.62025868 1.20542331 -0.23564729 -6.09597885e-03
482 1 0.74449675 1.20572815 -0.23047344 -6.09677124e-03
483 1 0.86972762 1.20479560 -0.22347112 -6.09261604e-03
484 1 0.99413126 1.20556741 -0.21575646 -6.09210769e-03
485 1 1.11896061 1.20494064 -0.20556818 -6.09159289e-03
486 1 1.24271133 1.20516118 -0.19510656 -6.09258964e-03
487 1 1.36684799 1.20701937 -0.18439829 -6.11404233e-03
488 1 1.49043761 1.20737782 -0.17151127 -6.12924398e-03
489 1 1.61365207 1.20636853 -0.15793435 -6.13810471e-03
490 1 1.73711038 1.20669452 -0.14372253 -6.10740278e-03
491 1 1.86077151 1.20661886 -0.12786692 -6.11299929e-03
492 1 1.98411662 1.20711140 -0.10990877 -6.11651709e-03
493 1 2.10715395 1.20683320 -0.09301877 -6.10892752e-03
494 1 2.23016021 1.20848432 -0.07409685 -6.08383817e-03
495 1 2.35315880 1.20931237 -0.05390333 -6.07811671e-03
496 1 2.47523931 1.20915454 -0.03243614 -6.12167487e-03
497 1 2.59714986 1.20875302 -0.01087233 -6.12891596e-03
498 1 2.71936115 1.20979059 0.01144111 -6.13439434e-03
499 1 2.84157439 1.21066607 0.03558619 -6.11877956e-03
500 1 2.96327085 1.21025884 0.06023219 -6.09486572e-03
501 1 3.08465162 1.21123310 0.08559104 -6.09206826e-03
502 1 3.20646655 1.21148524 0.11199552 -6.09206855e-03
503 1 3.32728900 1.21174937 0.13933393 -6.09206932e-03
504 1 3.44740557 1.21229513 0.16721060 -6.11378764e-03
505 1 3.56896064 1.21375127 0.19593492 -6.10132488e-03
506 1 3.68867831 1.21434649 0.22543233 -6.14015253e-03
507 1 3.80866333 1.21427901 0.25519295 -6.18862768e-03
508 1 3.92805796 1.21524169 0.28654348 -6.20494803e-03
509 1 4.04770352 1.21558731 0.31751093 -6.16689241e-03
510 1 4.16680568 1.21594446 0.34977303 -6.13536340e-03
511 1 4.28610648 1.21621911 0.38222417 -6.09206826e-03
512 1 4.40502644 1.21655487 0.41534283 -6.09528258e-03
513 1 4.52416496 1.21747066 0.44893225 -6.10197805e-03
514 1 4.64325633 1.21761596 0.48334638 -6.09705471e-03
515 1 4.76156183 1.21833605 0.51849114 -6.06436498e-03
516 1 4.88013854 1.21829913 0.55471704 -6.12133674e-03
517 1 4.99791651 1.21911748 0.59085741 -6.20974613e-03
518 1 5.11579638 1.21992698 0.62779748 -6.24802334e-03
519 1 5.23317945 1.22054189 0.66542555 -6.19819175e-03
520 1 5.35086847 1.22033538 0.70367493 -6.15088270e-03
521 1 5.46838520 1.22096373 0.74251505 -6.13301438e-03
522 1 5.58528337 1.22207514 0.78183657 -6.10131989e-03
523 1 5.70241287 1.22245345 0.82183186 -6.05757291e-03
524 1 5.81900203 1.22332598 0.86222830 -6.04491082e-03
525 1 5.93503038 1.22360634 0.90348017 -6.05437557e-03
526 1 6.05150831 1.22460914 0.94487585 -6.06489385e-03
527 1 6.16732615 1.22533585 0.98671531 -6.09206826e-03
528 1 6.28304854 1.22608549 1.02925315 -6.09206826e-03
529 1 6.39866899 1.22610761 1.07230721 -6.09979510e-03
530 1 6.51388306 1.22672270 1.11576686 -6.12512692e-03
531 1 6.62916747 1.22762208 1.15956156 -6.16578501e-03
532 1 6.74414314 1.22778248 1.20421197 -6.26929389e-03
533 1 6.85865833 1.22837663 1.24871561 -6.28695529e-03
534 1 6.97369902 1.22942983 1.29352020 -6.28583704e-03
535 1 7.08812927 1.22970754 1.33899294 -6.23881179e-03
536 1 7.20264905 1.23032705 1.38510136 -6.30184580e-03
537 1 7.31666371 1.23100006 1.43144552 -6.28022129e-03
538 1 7.43064189 1.23167415 1.47799095 -6.24103982e-03
539 1 7.54460323 1.23236380 1.52495671 -6.33470904e-03
540 1 7.65836205 1.23243277 1.57272351 -6.28101331e-03