ITEM: TIMESTEP
0
ITEM: NUMBER OF ATOMS
10710
ITEM: BOX BOUNDS ff ff ff
-2.0 27.805317040216842
-2.0 3.210100209991313
-2.2447252331802545 2.254056937668433
ITEM: ATOMS id type x y z q
1 2 0.00000000 0.00000000 0.24527477 3.35542180e-03
2 2 0.00000000 0.00000000 -0.24472523 -3.35542180e-03
3 2 0.00000000 1.21000000 0.24527477 3.41686920e-03
4 2 0.00000000 1.21000000 -0.24472523 -3.41686920e-03
5 1 25.80506018 0.00004845 0.25400711 3.37776783e-03
6 1 25.80530584 0.00006870 -0.23599255 -3.37776783e-03
7 1 25.80507127 1.21004808 0.25405694 3.41686920e-03
8 1 25.80531704 1.21006813 -0.23594269 -3.41686920e-03
9 2 0.00000000 0.00000000 -0.12222523 0.00000000e+00
10 2 0.00000000 0.00000000 0.00027477 0.00000000e+00
11 2 0.00000000 0.00000000 0.12277477 0.00000000e+00
12 2 0.00000000 0.12100000 0.24527477 5.18139194e-03
13 2 0.00000000 0.24200000 0.24527477 5.50362000e-03
14 2 0.00000000 0.36300000 0.24527477 5.01501884e-03
15 2 0.00000000 0.48400000 0.24527477 5.50904170e-03
16 2 0.00000000 0.60500000 0.24527477 6.02408537e-03
17 2 0.00000000 0.72600000 0.24527477 6.86123120e-03
18 2 0.00000000 0.84700000 0.24527477 6.83241897e-03
19 2 0.00000000 0.96800000 0.24527477 5.84994208e-03
20 2 0.00000000 1.08900000 0.24527477 4.96878236e-03
21 2 0.00000000 1.21000000 -0.12222523 0.00000000e+00
22 2 0.00000000 1.21000000 0.00027477 0.00000000e+00
23 2 0.00000000 1.21000000 0.12277477 0.00000000e+00
24 2 0.00000000 0.12100000 -0.24472523 -5.18139194e-03
25 2 0.00000000 0.24200000 -0.24472523 -5.50362000e-03
26 2 0.00000000 0.36300000 -0.24472523 -5.01501884e-03
27 2 0.00000000 0.48400000 -0.24472523 -5.50904170e-03
28 2 0.00000000 0.60500000 -0.24472523 -6.02408537e-03
29 2 0.00000000 0.72600000 -0.24472523 -6.86123120e-03
30 2 0.00000000 0.84700000 -0.24472523 -6.83241897e-03
31 2 0.00000000 0.96800000 -0.24472523 -5.84994208e-03
32 2 0.00000000 1.08900000 -0.24472523 -4.96878236e-03
33 1 25.80524453 0.00006361 -0.11349268 0.00000000e+00
34 1 25.80518318 0.00005855 0.00900725 0.00000000e+00
35 1 25.80512169 0.00005344 0.13150722 0.00000000e+00
36 1 25.80506174 0.12104833 0.25401214 5.05002864e-03
37 1 25.80506341 0.24204825 0.25401711 5.64089052e-03
38 1 25.80506483 0.36304824 0.25402212 5.44128437e-03
39 1 25.80506617 0.48404832 0.25402702 6.40224548e-03
40 1 25.80506717 0.60504825 0.25403211 6.88148315e-03
41 1 25.80506829 0.72604816 0.25403722 6.11583422e-03
42 1 25.80506918 0.84704816 0.25404207 5.69198232e-03
43 1 25.80506994 0.96804817 0.25404709 6.01735171e-03
44 1 25.80507054 1.08904815 0.25405206 5.43527194e-03
45 1 25.80525574 1.21006309 -0.11344285 0.00000000e+00
46 1 25.80519425 1.21005804 0.00905711 0.00000000e+00
47 1 25.80513276 1.21005309 0.13155702 0.00000000e+00
48 1 25.80530740 0.12106857 -0.23598767 -5.05002864e-03
49 1 25.80530910 0.24206856 -0.23598256 -5.64089052e-03
50 1 25.80531051 0.36306850 -0.23597764 -5.44128437e-03
51 1 25.80531176 0.48406852 -0.23597261 -6.40224548e-03
52 1 25.80531291 0.60506844 -0.23596758 -6.88148315e-03
53 1 25.80531419 0.72606841 -0.23596256 -6.11583422e-03
54 1 25.80531491 0.84706833 -0.23595764 -5.69198232e-03
55 1 25.80531572 0.96806822 -0.23595270 -6.01735171e-03
56 1 25.80531630 1.08906818 -0.23594774 -5.43527194e-03
57 1 0.12231054 0.00004699 -0.24470503 -4.80862070e-03
58 1 0.24461745 0.00009255 -0.24468968 -5.62714142e-03
59 1 0.36693178 0.00011426 -0.24468174 -6.00619986e-03
60 1 0.48924623 0.00012866 -0.24468299 -6.09052560e-03
61 1 0.61156434 0.00013696 -0.24468155 -6.09206826e-03
62 1 0.73388586 0.00013838 -0.24468917 -5.94781856e-03
63 1 0.85621082 0.00013994 -0.24468884 -5.82025544e-03
64 1 0.97853171 0.00013735 -0.24467852 -5.95871849e-03
65 1 1.10085403 0.00013959 -0.24467273 -6.09232315e-03
66 1 1.22317341 0.00013832 -0.24467223 -6.09205550e-03
67 1 1.34548902 0.00013422 -0.24467332 -6.08598370e-03
68 1 1.46781144 0.00013398 -0.24466971 -6.07933546e-03
69 1 1.59013586 0.00013087 -0.24467102 -6.08488133e-03
70 1 1.71245718 0.00013213 -0.24465981 -6.08161608e-03
71 1 1.83478152 0.00013431 -0.24465483 -6.08881076e-03
72 1 1.95710346 0.00013328 -0.24464509 -6.09207793e-03
73 1 2.07942518 0.00012879 -0.24463199 -6.09206431e-03
74 1 2.20175037 0.00012988 -0.24461952 -6.09206920e-03
75 1 2.32407313 0.00012833 -0.24460543 -6.09206749e-03
76 1 2.44639324 0.00013175 -0.24459481 -6.09206826e-03
77 1 2.56871319 0.00012946 -0.24458581 -6.09206901e-03
78 1 2.69103814 0.00012273 -0.24457508 -6.08547783e-03
79 1 2.81336528 0.00012327 -0.24456423 -6.07797420e-03
80 1 2.93568611 0.00012751 -0.24454478 -6.08460882e-03
81 1 3.05800778 0.00012908 -0.24452687 -6.08123045e-03
82 1 3.18032747 0.00012856 -0.24451587 -6.08867780e-03
83 1 3.30264813 0.00012704 -0.24450272 -6.09206866e-03
84 1 3.42496556 0.00012851 -0.24448603 -6.09206839e-03
85 1 3.54728359 0.00012679 -0.24446623 -6.09206833e-03
86 1 3.66960103 0.00012309 -0.24444728 -6.09206826e-03
87 1 3.79192402 0.00011927 -0.24443141 -6.09206824e-03
88 1 3.91424171 0.00012023 -0.24441260 -6.09206825e-03
89 1 4.03656310 0.00012337 -0.24439351 -6.10477040e-03
90 1 4.15888266 0.00013084 -0.24437707 -6.10144793e-03
91 1 4.28120017 0.00013647 -0.24435773 -6.09206826e-03
92 1 4.40351967 0.00013901 -0.24433620 -6.08473760e-03
93 1 4.52583935 0.00013566 -0.24431750 -6.07718969e-03
94 1 4.64815454 0.00013867 -0.24429245 -6.08430762e-03
95 1 4.77047338 0.00014011 -0.24426737 -6.08084602e-03
96 1 4.89279496 0.00014024 -0.24423894 -6.08857506e-03
97 1 5.01511242 0.00013626 -0.24421352 -6.09439460e-03
98 1 5.13743077 0.00013570 -0.24418487 -6.09360296e-03
99 1 5.25975079 0.00013562 -0.24415404 -6.10212083e-03
100 1 5.38206618 0.00013363 -0.24412512 -6.09455787e-03
101 1 5.50437917 0.00013739 -0.24410213 -6.08457013e-03
102 1 5.62668962 0.00014427 -0.24407878 -6.08334006e-03
103 1 5.74900602 0.00014698 -0.24405488 -6.09025173e-03
104 1 5.87131822 0.00014857 -0.24402718 -6.09206826e-03
105 1 5.99363320 0.00015227 -0.24399842 -6.09206826e-03
106 1 6.11594728 0.00015167 -0.24396811 -6.08838437e-03
107 1 6.23825925 0.00015247 -0.24393485 -6.09329454e-03
108 1 6.36056991 0.00015166 -0.24390476 -6.09400483e-03
109 1 6.48288607 0.00015304 -0.24387635 -6.08872179e-03
110 1 6.60519750 0.00015003 -0.24384491 -6.08812243e-03
111 1 6.72750670 0.00015414 -0.24381783 -6.09206826e-03
112 1 6.84981992 0.00016088 -0.24379341 -6.09206826e-03
113 1 6.97213148 0.00016091 -0.24376406 -6.09206826e-03
114 1 7.09444328 0.00016461 -0.24373132 -6.06302327e-03
115 1 7.21675482 0.00016544 -0.24369833 -6.06302327e-03
116 1 7.33906748 0.00016403 -0.24366301 -5.90236529e-03
117 1 7.46137608 0.00016725 -0.24362882 -5.81608564e-03
118 1 7.58368528 0.00016536 -0.24360027 -6.10035823e-03
119 1 7.70599787 0.00016753 -0.24357185 -5.08741334e-03
120 1 7.82830928 0.00017242 -0.24354501 -6.87719096e-03
121 1 7.95061888 0.00018225 -0.24351747 -5.18694999e-03
122 1 8.07293247 0.00017894 -0.24348796 -5.00655937e-03
123 1 8.19524549 0.00017793 -0.24344513 -7.17602109e-03
124 1 8.31755326 0.00018170 -0.24341147 -5.64123658e-03
125 1 8.43986163 0.00018641 -0.24338204 -5.91249038e-03
126 1 8.56216410 0.00018815 -0.24334635 -5.77202514e-03
127 1 8.68446870 0.00019354 -0.24331163 -5.95689302e-03
128 1 8.80677663 0.00019355 -0.24327825 -6.09206826e-03
129 1 8.92908888 0.00019320 -0.24324464 -6.09206826e-03
130 1 9.05139902 0.00019463 -0.24320716 -6.09206826e-03
131 1 9.17370582 0.00019703 -0.24316839 -6.00199927e-03
132 1 9.29601182 0.00020152 -0.24313156 -6.06987486e-03
133 1 9.41831955 0.00020215 -0.24309131 -5.02835518e-03
134 1 9.54062489 0.00020451 -0.24305108 -6.79157831e-03
135 1 9.66292911 0.00021046 -0.24301875 -4.92113473e-03
136 1 9.78523902 0.00021039 -0.24297902 -5.56259368e-03
137 1 9.90754609 0.00020684 -0.24293754 -5.94323360e-03
138 1 10.02985375 0.00020441 -0.24289637 -5.00637084e-03
139 1 10.15215521 0.00020115 -0.24285700 -6.75640181e-03
140 1 10.27446143 0.00020286 -0.24282336 -4.91035923e-03
141 1 10.39676576 0.00020296 -0.24278194 -5.75765677e-03
142 1 10.51907039 0.00019953 -0.24273865 -6.37465021e-03
143 1 10.64137474 0.00019736 -0.24269850 -6.33172667e-03
144 1 10.76367929 0.00019618 -0.24265858 -5.77695765e-03
145 1 10.88598403 0.00019780 -0.24261815 -5.75602868e-03
146 1 11.00828682 0.00019812 -0.24257524 -5.94989338e-03
147 1 11.13058961 0.00019693 -0.24253180 -6.09206826e-03
148 1 11.25289242 0.00019586 -0.24249066 -6.09206826e-03
149 1 11.37519684 0.00019375 -0.24244481 -6.49862787e-03
150 1 11.49750069 0.00019552 -0.24240256 -6.47806478e-03
151 1 11.61980458 0.00019694 -0.24235657 -5.98398651e-03
152 1 11.74210800 0.00019921 -0.24231539 -5.97118729e-03
153 1 11.86441242 0.00019725 -0.24227664 -6.32827249e-03
154 1 11.98671560 0.00019904 -0.24223148 -6.38296841e-03
155 1 12.10901933 0.00019841 -0.24218791 -6.09206826e-03
156 1 12.23132154 0.00019707 -0.24214159 -5.92176613e-03
157 1 12.35362411 0.00019912 -0.24209956 -5.84196899e-03
158 1 12.47592350 0.00019958 -0.24205407 -5.89327746e-03
159 1 12.59822470 0.00019975 -0.24200552 -4.96011300e-03
160 1 12.72052305 0.00019760 -0.24195457 -6.65158567e-03
161 1 12.84282243 0.00020144 -0.24190682 -4.90989307e-03
162 1 12.96512484 0.00020166 -0.24186067 -5.52395043e-03
163 1 13.08742491 0.00019906 -0.24181640 -5.87068470e-03
164 1 13.20972184 0.00019939 -0.24177028 -4.88602194e-03
165 1 13.33202018 0.00020078 -0.24172414 -6.40279006e-03
166 1 13.45431907 0.00020000 -0.24167664 -5.12407601e-03
167 1 13.57661756 0.00020007 -0.24162870 -4.88216806e-03
168 1 13.69891592 0.00019730 -0.24157920 -6.38017819e-03
169 1 13.82121359 0.00019955 -0.24153243 -5.11373203e-03
170 1 13.94351137 0.00020005 -0.24148609 -4.85398664e-03
171 1 14.06581164 0.00019993 -0.24143725 -6.35577596e-03
172 1 14.18810782 0.00020370 -0.24139008 -5.10698016e-03
173 1 14.31040705 0.00020264 -0.24134397 -4.85870271e-03
174 1 14.43270448 0.00020320 -0.24129347 -6.37702085e-03
175 1 14.55500252 0.00019993 -0.24124220 -5.10092274e-03
176 1 14.67729974 0.00019982 -0.24119160 -4.84968636e-03
177 1 14.79959391 0.00019775 -0.24113829 -6.37599125e-03
178 1 14.92188778 0.00019900 -0.24108633 -4.87710407e-03
179 1 15.04418190 0.00020041 -0.24103615 -5.56677439e-03
180 1 15.16648056 0.00019954 -0.24098483 -5.93477518e-03
181 1 15.28877672 0.00019792 -0.24093279 -6.09206826e-03
182 1 15.41107312 0.00019684 -0.24087970 -6.09206826e-03
183 1 15.53336699 0.00019413 -0.24082797 -5.98211588e-03
184 1 15.65566250 0.00019270 -0.24077710 -5.88223740e-03
185 1 15.77795987 0.00019375 -0.24072398 -5.93479953e-03
186 1 15.90025470 0.00019477 -0.24067312 -4.77734034e-03
187 1 16.02254940 0.00019407 -0.24062057 -6.31776323e-03
188 1 16.14484181 0.00019432 -0.24057070 -4.85845554e-03
189 1 16.26713348 0.00019188 -0.24052126 -5.48045656e-03
190 1 16.38942608 0.00019138 -0.24047031 -5.74774533e-03
191 1 16.51171890 0.00019158 -0.24041922 -5.91938606e-03
192 1 16.63401228 0.00019207 -0.24036733 -4.72601755e-03
193 1 16.75630554 0.00019271 -0.24031489 -6.44309587e-03
194 1 16.87859875 0.00019315 -0.24026360 -5.21392668e-03
195 1 17.00089171 0.00019260 -0.24021337 -4.32492230e-03
196 1 17.12318257 0.00018883 -0.24016011 -6.11554878e-03
197 1 17.24547397 0.00018681 -0.24010706 -5.20526136e-03
198 1 17.36776645 0.00018549 -0.24005573 -4.31230685e-03
199 1 17.49005649 0.00018176 -0.24000172 -6.11716232e-03
200 1 17.61234746 0.00018217 -0.23994649 -5.69773107e-03
201 1 17.73463911 0.00018161 -0.23989129 -5.99314584e-03
202 1 17.85692924 0.00018063 -0.23983870 -4.76350900e-03
203 1 17.97921815 0.00018215 -0.23978541 -5.21120302e-03
204 1 18.10150860 0.00018193 -0.23973011 -6.01204532e-03
205 1 18.22379820 0.00018039 -0.23967487 -5.73233737e-03
206 1 18.34609032 0.00017475 -0.23961974 -5.81943467e-03
207 1 18.46837988 0.00017560 -0.23956257 -6.32655047e-03
208 1 18.59066896 0.00017279 -0.23950733 -5.03614005e-03
209 1 18.71295695 0.00017039 -0.23945155 -4.70280803e-03
210 1 18.83524708 0.00016790 -0.23939249 -8.65683464e-03
211 1 18.95753543 0.00016788 -0.23933356 -5.94692004e-03
212 1 19.07982332 0.00016903 -0.23927890 -5.65885778e-03
213 1 19.20211206 0.00016850 -0.23922192 -5.99277035e-03
214 1 19.32440034 0.00016671 -0.23916650 -6.04066598e-03
215 1 19.44668676 0.00016598 -0.23911078 -6.09206826e-03
216 1 19.56897438 0.00016417 -0.23905350 -6.09206826e-03
217 1 19.69126122 0.00016221 -0.23899527 -6.09206826e-03
218 1 19.81354800 0.00015995 -0.23893735 -5.94140402e-03
219 1 19.93583495 0.00015892 -0.23887954 -6.09135703e-03
220 1 20.05812100 0.00015718 -0.23882142 -6.09135703e-03
221 1 20.18040844 0.00015378 -0.23876307 -6.09206826e-03
222 1 20.30269405 0.00015241 -0.23870431 -6.22362401e-03
223 1 20.42497891 0.00015155 -0.23864727 -6.30618064e-03
224 1 20.54726432 0.00015026 -0.23858850 -6.16079228e-03
225 1 20.66954903 0.00014824 -0.23852937 -6.90076158e-03
226 1 20.79183416 0.00014579 -0.23846890 -7.19612184e-03
227 1 20.91411908 0.00014298 -0.23840965 -6.17999120e-03
228 1 21.03640314 0.00014082 -0.23834974 -5.85545161e-03
229 1 21.15868706 0.00013911 -0.23829149 -6.04373412e-03
230 1 21.28097119 0.00013679 -0.23823207 -6.05837687e-03
231 1 21.40325451 0.00013470 -0.23817358 -6.22625934e-03
232 1 21.52553782 0.00013179 -0.23811439 -6.96326852e-03
233 1 21.64782118 0.00012989 -0.23805520 -6.60839364e-03
234 1 21.77010364 0.00012846 -0.23799534 -6.08325267e-03
235 1 21.89238634 0.00012719 -0.23793516 -5.98999100e-03
236 1 22.01466880 0.00012553 -0.23787540 -6.02220795e-03
237 1 22.13695115 0.00012299 -0.23781545 -5.94934321e-03
238 1 22.25923401 0.00012102 -0.23775483 -6.23085673e-03
239 1 22.38151619 0.00011917 -0.23769336 -5.91383044e-03
240 1 22.50379775 0.00011726 -0.23763368 -5.82022831e-03
241 1 22.62607822 0.00011508 -0.23757335 -6.06616825e-03
242 1 22.74835885 0.00011267 -0.23751289 -6.09206826e-03
243 1 22.87063931 0.00011064 -0.23745268 -6.22108889e-03
244 1 22.99291999 0.00010969 -0.23739244 -6.93510095e-03
245 1 23.11520011 0.00010846 -0.23733120 -6.55067958e-03
246 1 23.23748046 0.00010735 -0.23727114 -5.44215936e-03
247 1 23.35976023 0.00010561 -0.23721045 -5.52453627e-03
248 1 23.48203987 0.00010355 -0.23714996 -6.11677386e-03
249 1 23.60431892 0.00010149 -0.23708951 -5.40422112e-03
250 1 23.72659792 0.00009929 -0.23702906 -5.51625079e-03
251 1 23.84887676 0.00009770 -0.23696793 -6.10817079e-03
252 1 23.97115526 0.00009541 -0.23690714 -5.39058303e-03
253 1 24.09343314 0.00009370 -0.23684632 -5.51111698e-03
254 1 24.21571130 0.00009162 -0.23678536 -6.09959331e-03
255 1 24.33798937 0.00008962 -0.23672483 -5.37708140e-03
256 1 24.46026704 0.00008840 -0.23666408 -5.50601994e-03
257 1 24.58254466 0.00008648 -0.23660309 -6.09132348e-03
258 1 24.70482193 0.00008485 -0.23654229 -5.36406280e-03
259 1 24.82709907 0.00008323 -0.23648132 -5.50114066e-03
260 1 24.94937573 0.00008123 -0.23642030 -6.07613573e-03
261 1 25.07165229 0.00007943 -0.23635916 -5.86576563e-03
262 1 25.19392826 0.00007735 -0.23629792 -5.87763703e-03
263 1 25.31620445 0.00007536 -0.23623695 -5.79509293e-03
264 1 25.43848000 0.00007368 -0.23617572 -6.45795830e-03
265 1 25.56075546 0.00007191 -0.23611464 -6.36067877e-03
266 1 25.68303069 0.00007025 -0.23605368 -5.01672083e-03
267 1 0.12230530 0.00004218 0.24525049 4.80862070e-03
268 1 0.24461326 0.00008343 0.24523444 5.62714142e-03
269 1 0.36692959 0.00010173 0.24522710 6.00619986e-03
270 1 0.48924777 0.00011603 0.24522802 6.09052560e-03
271 1 0.61156781 0.00013190 0.24521768 6.09206826e-03
272 1 0.73388148 0.00013061 0.24522164 5.94781856e-03
273 1 0.85619767 0.00013061 0.24522393 5.82025544e-03
274 1 0.97851899 0.00012197 0.24522175 5.95871849e-03
275 1 1.10083932 0.00011977 0.24522207 6.09232315e-03
276 1 1.22315998 0.00011999 0.24522587 6.09205550e-03
277 1 1.34547616 0.00011795 0.24522668 6.08598370e-03
278 1 1.46779434 0.00011900 0.24522804 6.07933546e-03
279 1 1.59011326 0.00011948 0.24523623 6.08488133e-03
280 1 1.71243487 0.00012524 0.24523554 6.08161608e-03
281 1 1.83475054 0.00012151 0.24524281 6.08881076e-03
282 1 1.95707135 0.00012421 0.24525369 6.09207793e-03
283 1 2.07939054 0.00011924 0.24526585 6.09206431e-03
284 1 2.20170879 0.00010987 0.24527929 6.09206920e-03
285 1 2.32402823 0.00010914 0.24529446 6.09206749e-03
286 1 2.44635166 0.00010982 0.24530342 6.09206826e-03
287 1 2.56867247 0.00010928 0.24531622 6.09206901e-03
288 1 2.69098750 0.00011727 0.24532771 6.08547783e-03
289 1 2.81330650 0.00012296 0.24533997 6.07797420e-03
290 1 2.93562760 0.00011785 0.24536108 6.08460882e-03
291 1 3.05794321 0.00011384 0.24537722 6.08123045e-03
292 1 3.18026154 0.00011378 0.24539020 6.08867780e-03
293 1 3.30257707 0.00011498 0.24540465 6.09206866e-03
294 1 3.42489363 0.00011303 0.24542655 6.09206839e-03
295 1 3.54720949 0.00011249 0.24543926 6.09206833e-03
296 1 3.66952657 0.00010960 0.24545096 6.09206826e-03
297 1 3.79184322 0.00010511 0.24547321 6.09206824e-03
298 1 3.91415731 0.00010846 0.24548904 6.09206825e-03
299 1 4.03647891 0.00011268 0.24550751 6.10477040e-03
300 1 4.15879553 0.00011564 0.24553138 6.10144793e-03
301 1 4.28111185 0.00011994 0.24555735 6.09206826e-03
302 1 4.40342798 0.00012356 0.24557853 6.08473760e-03
303 1 4.52574430 0.00012505 0.24559447 6.07718969e-03
304 1 4.64806112 0.00012414 0.24561757 6.08430762e-03
305 1 4.77037360 0.00012037 0.24564059 6.08084602e-03
306 1 4.89269285 0.00011999 0.24566467 6.08857506e-03
307 1 5.01500786 0.00011799 0.24569490 6.09439460e-03
308 1 5.13732302 0.00012214 0.24572127 6.09360296e-03
309 1 5.25963379 0.00012485 0.24575171 6.10212083e-03
310 1 5.38195065 0.00013085 0.24577997 6.09455787e-03
311 1 5.50426791 0.00013209 0.24580814 6.08457013e-03
312 1 5.62658355 0.00014201 0.24583733 6.08334006e-03
313 1 5.74889361 0.00014117 0.24587122 6.09025173e-03
314 1 5.87120737 0.00014360 0.24589786 6.09206826e-03
315 1 5.99351823 0.00014615 0.24592524 6.09206826e-03
316 1 6.11582589 0.00014506 0.24595094 6.08838437e-03
317 1 6.23814288 0.00014426 0.24598086 6.09329454e-03
318 1 6.36045558 0.00014819 0.24601220 6.09400483e-03
319 1 6.48276605 0.00014944 0.24604217 6.08872179e-03
320 1 6.60507707 0.00014965 0.24606923 6.08812243e-03
321 1 6.72739042 0.00014883 0.24609495 6.09206826e-03
322 1 6.84970038 0.00014747 0.24612460 6.09206826e-03
323 1 6.97200979 0.00014977 0.24615556 6.09206826e-03
324 1 7.09432012 0.00015277 0.24618681 6.06302327e-03
325 1 7.21663027 0.00015212 0.24622173 6.06302327e-03
326 1 7.33894177 0.00015626 0.24625670 5.90236529e-03
327 1 7.46125403 0.00015783 0.24629518 5.81608564e-03
328 1 7.58356761 0.00016167 0.24632638 6.10035823e-03
329 1 7.70588214 0.00016626 0.24635470 5.08741347e-03
330 1 7.82818759 0.00016068 0.24637734 6.88423117e-03
331 1 7.95049265 0.00016271 0.24640884 4.95164977e-03
332 1 8.07280159 0.00016697 0.24644314 5.63292633e-03
333 1 8.19510689 0.00016906 0.24647709 5.95654755e-03
334 1 8.31741237 0.00016994 0.24651380 6.00432988e-03
335 1 8.43971845 0.00017025 0.24655359 6.08757506e-03
336 1 8.56202512 0.00017202 0.24658691 5.05700823e-03
337 1 8.68433426 0.00017228 0.24661680 6.83715280e-03
338 1 8.80663936 0.00017531 0.24664921 4.93632937e-03
339 1 8.92894333 0.00017957 0.24668750 5.62467055e-03
340 1 9.05124891 0.00018311 0.24672188 5.95386311e-03
341 1 9.17355363 0.00018524 0.24676286 6.00199927e-03
342 1 9.29585996 0.00018585 0.24680142 6.06987486e-03
343 1 9.41816783 0.00018756 0.24683637 5.01509653e-03
344 1 9.54047094 0.00018555 0.24687564 6.78511241e-03
345 1 9.66277676 0.00018655 0.24691289 4.92113473e-03
346 1 9.78508169 0.00019064 0.24695175 5.61645056e-03
347 1 9.90738443 0.00019081 0.24699493 5.95118153e-03
348 1 10.02969241 0.00018955 0.24703365 6.09206826e-03
349 1 10.15199651 0.00019197 0.24707699 6.09206826e-03
350 1 10.27429802 0.00018890 0.24711587 6.09206826e-03
351 1 10.39660326 0.00018518 0.24715557 6.50085567e-03
352 1 10.51890540 0.00018098 0.24719753 6.38496347e-03
353 1 10.64120798 0.00018123 0.24724227 5.77251663e-03
354 1 10.76351487 0.00018362 0.24728118 5.73476969e-03
355 1 10.88581662 0.00018211 0.24732190 5.94888879e-03
356 1 11.00811902 0.00018637 0.24736459 6.09206826e-03
357 1 11.13041959 0.00018713 0.24740586 6.09206826e-03
358 1 11.25272210 0.00018946 0.24744985 6.09206826e-03
359 1 11.37502344 0.00019161 0.24749562 6.09206826e-03
360 1 11.49732753 0.00019210 0.24753953 4.98457375e-03
361 1 11.61963030 0.00018452 0.24758082 6.69756871e-03
362 1 11.74193263 0.00018191 0.24762276 5.15375987e-03
363 1 11.86423669 0.00018262 0.24766885 4.95985007e-03
364 1 11.98653892 0.00018059 0.24771146 6.48212442e-03
365 1 12.10883513 0.00018425 0.24775740 5.14927068e-03
366 1 12.23113553 0.00018554 0.24780602 4.95341033e-03
367 1 12.35343815 0.00018774 0.24785403 6.46347279e-03
368 1 12.47573841 0.00018685 0.24789665 5.14043101e-03
369 1 12.59804033 0.00018795 0.24794704 4.91020010e-03
370 1 12.72034054 0.00018721 0.24799290 6.45556760e-03
371 1 12.84263851 0.00018847 0.24804080 4.90989307e-03
372 1 12.96493714 0.00018956 0.24808936 5.52395043e-03
373 1 13.08723627 0.00018930 0.24813520 5.87068470e-03
374 1 13.20953470 0.00018781 0.24818067 4.87920209e-03
375 1 13.33183200 0.00018377 0.24822593 6.41661913e-03
376 1 13.45412885 0.00018427 0.24827412 4.89988333e-03
377 1 13.57642968 0.00018208 0.24832389 5.51681014e-03
378 1 13.69872911 0.00018058 0.24837250 5.85936171e-03
379 1 13.82102580 0.00017903 0.24841950 4.85938456e-03
380 1 13.94332563 0.00017812 0.24846661 6.38254444e-03
381 1 14.06561909 0.00017936 0.24851684 4.88995824e-03
382 1 14.18791446 0.00018049 0.24856704 5.57476230e-03
383 1 14.31021039 0.00018092 0.24861572 5.93743790e-03
384 1 14.43250429 0.00018404 0.24866990 5.98766457e-03
385 1 14.55479875 0.00018548 0.24871967 5.96043235e-03
386 1 14.67709508 0.00018389 0.24876918 4.81637844e-03
387 1 14.79939199 0.00018602 0.24882213 6.34214196e-03
388 1 14.92168684 0.00018508 0.24887131 4.87620659e-03
389 1 15.04398377 0.00018459 0.24892286 5.56677439e-03
390 1 15.16627715 0.00018322 0.24897411 5.93477518e-03
391 1 15.28857057 0.00018295 0.24902318 5.98532808e-03
392 1 15.41086550 0.00018278 0.24907500 5.94249673e-03
393 1 15.53316135 0.00018167 0.24912764 4.79106117e-03
394 1 15.65545371 0.00018051 0.24918152 6.34873408e-03
395 1 15.77774771 0.00017770 0.24923355 5.10720957e-03
396 1 15.90004404 0.00018022 0.24928629 4.79385489e-03
397 1 16.02233948 0.00017559 0.24933906 6.33054845e-03
398 1 16.14463268 0.00017831 0.24938849 5.10009402e-03
399 1 16.26692730 0.00017769 0.24944337 4.78369059e-03
400 1 16.38921902 0.00017481 0.24949382 6.31203828e-03
401 1 16.51151002 0.00017714 0.24954482 5.09300092e-03
402 1 16.63380404 0.00017809 0.24959685 4.74903927e-03
403 1 16.75609579 0.00017775 0.24964744 6.32830758e-03
404 1 16.87838613 0.00017509 0.24970103 5.08343922e-03
405 1 17.00067770 0.00017403 0.24975409 4.32591159e-03
406 1 17.12296872 0.00017196 0.24980288 6.00104739e-03
407 1 17.24525988 0.00016855 0.24985651 5.21119202e-03
408 1 17.36755088 0.00016706 0.24991006 6.09206826e-03
409 1 17.48984137 0.00016524 0.24996363 6.05153388e-03
410 1 17.61213092 0.00016449 0.25001645 5.91774538e-03
411 1 17.73442173 0.00016202 0.25007280 6.22305381e-03
412 1 17.85671174 0.00016152 0.25012914 5.03791106e-03
413 1 17.97900039 0.00016080 0.25018250 4.72607940e-03
414 1 18.10128879 0.00015782 0.25023682 8.71836332e-03
415 1 18.22357843 0.00015480 0.25029205 5.95355142e-03
416 1 18.34586675 0.00015466 0.25034894 5.36960420e-03
417 1 18.46815414 0.00015555 0.25040619 6.03255871e-03
418 1 18.59044268 0.00015423 0.25046153 5.00245570e-03
419 1 18.71273200 0.00015174 0.25051790 4.70280803e-03
420 1 18.83502013 0.00015001 0.25057409 8.65685956e-03
421 1 18.95730745 0.00015053 0.25063423 5.94692135e-03
422 1 19.07959455 0.00014752 0.25069287 5.65886656e-03
423 1 19.20188320 0.00014447 0.25074989 5.98663784e-03
424 1 19.32417102 0.00014331 0.25080795 6.03862808e-03
425 1 19.44645690 0.00014225 0.25086492 6.08821513e-03
426 1 19.56874344 0.00014010 0.25092221 6.17296108e-03
427 1 19.69102955 0.00013762 0.25097930 6.04911048e-03
428 1 19.81331652 0.00013598 0.25103703 6.99423467e-03
429 1 19.93560291 0.00013529 0.25109465 6.49916941e-03
430 1 20.05788811 0.00013415 0.25115550 6.05139015e-03
431 1 20.18017308 0.00013284 0.25121482 6.07023001e-03
432 1 20.30245849 0.00013135 0.25127290 6.06423220e-03
433 1 20.42474379 0.00012981 0.25133207 6.03339671e-03
434 1 20.54702810 0.00012880 0.25139133 6.06123277e-03
435 1 20.66931298 0.00012744 0.25144891 6.05523286e-03
436 1 20.79159731 0.00012598 0.25150772 6.01539697e-03
437 1 20.91388136 0.00012233 0.25156782 6.05223237e-03
438 1 21.03616596 0.00012085 0.25162839 6.04623034e-03
439 1 21.15844937 0.00012017 0.25168819 5.99739088e-03
440 1 21.28073205 0.00011771 0.25174814 6.03386113e-03
441 1 21.40301453 0.00011608 0.25180756 6.06015229e-03
442 1 21.52529755 0.00011478 0.25186756 6.93292310e-03
443 1 21.64758034 0.00011086 0.25192645 6.60839364e-03
444 1 21.76986253 0.00010902 0.25198744 6.08325267e-03
445 1 21.89214489 0.00010685 0.25204702 5.98999100e-03
446 1 22.01442695 0.00010486 0.25210757 6.02220795e-03
447 1 22.13670905 0.00010306 0.25216839 5.94934321e-03
448 1 22.25899131 0.00010087 0.25222964 6.00521256e-03
449 1 22.38127286 0.00009971 0.25229060 5.96042100e-03
450 1 22.50355429 0.00009727 0.25235242 6.01327673e-03
451 1 22.62583535 0.00009586 0.25241354 6.06616825e-03
452 1 22.74811636 0.00009402 0.25247446 6.09206826e-03
453 1 22.87039669 0.00009214 0.25253478 6.22108889e-03
454 1 22.99267683 0.00009020 0.25259576 6.93510095e-03
455 1 23.11495646 0.00008828 0.25265685 6.55067958e-03
456 1 23.23723627 0.00008672 0.25271860 5.44215936e-03
457 1 23.35951592 0.00008458 0.25277930 5.52453627e-03
458 1 23.48179553 0.00008207 0.25283965 6.09206826e-03
459 1 23.60407472 0.00007986 0.25290092 5.52769247e-03
460 1 23.72635318 0.00007860 0.25296237 5.54504444e-03
461 1 23.84863180 0.00007683 0.25302326 6.09206826e-03
462 1 23.97091024 0.00007487 0.25308514 5.52433613e-03
463 1 24.09318872 0.00007306 0.25314655 5.54169116e-03
464 1 24.21546662 0.00007163 0.25320780 6.09959331e-03
465 1 24.33774452 0.00006981 0.25326939 5.37708140e-03
466 1 24.46002219 0.00006808 0.25333059 5.50601994e-03
467 1 24.58229962 0.00006635 0.25339181 6.09132348e-03
468 1 24.70457676 0.00006456 0.25345337 5.36406280e-03
469 1 24.82685353 0.00006274 0.25351484 5.50114066e-03
470 1 24.94913022 0.00006092 0.25357632 6.07613573e-03
471 1 25.07140659 0.00005905 0.25363783 5.86576563e-03
472 1 25.19368258 0.00005730 0.25369941 5.87763704e-03
473 1 25.31595855 0.00005534 0.25376113 5.79509293e-03
474 1 25.43823430 0.00005359 0.25382259 6.45795830e-03
475 1 25.56050984 0.00005177 0.25388413 6.36067877e-03
476 1 25.68278503 0.00005002 0.25394569 5.01672083e-03
477 1 0.12231676 1.20995251 -0.24469526 -5.06599779e-03
478 1 0.24462202 1.20991408 -0.24467436 -5.96099493e-03
479 1 0.36692805 1.20988464 -0.24466708 -6.06828787e-03
480 1 0.48924593 1.20987294 -0.24466806 -6.09081051e-03
481 1 0.61156594 1.20986605 -0.24466532 -6.09597885e-03
482 1 0.73388642 1.20986589 -0.24466439 -6.09677124e-03
483 1 0.85620789 1.20986431 -0.24466469 -6.09261604e-03
484 1 0.97852759 1.20986471 -0.24466431 -6.09210769e-03
485 1 1.10085232 1.20986162 -0.24466563 -6.09159289e-03
486 1 1.22317384 1.20985858 -0.24466500 -6.09258964e-03
487 1 1.34549721 1.20986146 -0.24466526 -6.11404233e-03
488 1 1.46781928 1.20986390 -0.24466401 -6.12924398e-03
489 1 1.59014205 1.20986278 -0.24465625 -6.13810471e-03
490 1 1.71246604 1.20986293 -0.24464382 -6.10740278e-03
491 1 1.83478777 1.20986138 -0.24463532 -6.11299929e-03
492 1 1.95711089 1.20986557 -0.24463003 -6.11651709e-03
493 1 2.07943163 1.20986563 -0.24461742 -6.10892752e-03
494 1 2.20175164 1.20986790 -0.24461012 -6.08383817e-03
495 1 2.32407878 1.20986497 -0.24459598 -6.07811671e-03
496 1 2.44640048 1.20986624 -0.24458599 -6.12167487e-03
497 1 2.56871671 1.20986452 -0.24457836 -6.12891596e-03
498 1 2.69103782 1.20986653 -0.24456599 -6.13439434e-03
499 1 2.81336241 1.20986869 -0.24455736 -6.11877956e-03
500 1 2.93568169 1.20986547 -0.24453935 -6.09486572e-03
501 1 3.05800091 1.20986699 -0.24452382 -6.09206826e-03
502 1 3.18032499 1.20986702 -0.24450847 -6.09206855e-03
503 1 3.30264167 1.20987160 -0.24449378 -6.09206932e-03
504 1 3.42496235 1.20986808 -0.24447232 -6.11378764e-03
505 1 3.54728236 1.20987229 -0.24445240 -6.10132488e-03
506 1 3.66959723 1.20987667 -0.24443427 -6.14015253e-03
507 1 3.79191664 1.20987483 -0.24441881 -6.18862768e-03
508 1 3.91423332 1.20987922 -0.24439754 -6.20494803e-03
509 1 4.03654857 1.20988101 -0.24437620 -6.16689241e-03
510 1 4.15886535 1.20988226 -0.24435461 -6.13536340e-03
511 1 4.28118195 1.20987720 -0.24433394 -6.09206826e-03
512 1 4.40350056 1.20987513 -0.24431146 -6.09528258e-03
513 1 4.52581785 1.20987864 -0.24428827 -6.10197805e-03
514 1 4.64813274 1.20988017 -0.24426164 -6.09705471e-03
515 1 4.77044856 1.20988705 -0.24423735 -6.06436498e-03
516 1 4.89277094 1.20989050 -0.24421347 -6.12133674e-03
517 1 5.01508630 1.20989649 -0.24419071 -6.20974613e-03
518 1 5.13740121 1.20990241 -0.24416671 -6.24802334e-03
519 1 5.25971625 1.20990592 -0.24414165 -6.19819175e-03
520 1 5.38203205 1.20990634 -0.24411953 -6.15088270e-03
521 1 5.50434838 1.20991465 -0.24409506 -6.13301438e-03
522 1 5.62666496 1.20992088 -0.24406729 -6.10131989e-03
523 1 5.74898012 1.20992208 -0.24403931 -6.05757291e-03
524 1 5.87129516 1.20992789 -0.24401243 -6.04491082e-03
525 1 5.99360937 1.20992735 -0.24398510 -6.05437557e-03
526 1 6.11592379 1.20993271 -0.24395562 -6.06489385e-03
527 1 6.23823794 1.20993709 -0.24392453 -6.09206826e-03
528 1 6.36054979 1.20994250 -0.24389455 -6.09206826e-03
529 1 6.48286649 1.20994231 -0.24387206 -6.09979510e-03
530 1 6.60518075 1.20994609 -0.24384404 -6.12512692e-03
531 1 6.72749319 1.20994945 -0.24381567 -6.16578501e-03
532 1 6.84980388 1.20994970 -0.24378559 -6.26929389e-03
533 1 6.97211120 1.20995404 -0.24375249 -6.28695529e-03
534 1 7.09442297 1.20995894 -0.24372077 -6.28583704e-03
535 1 7.21673306 1.20996151 -0.24368916 -6.23881179e-03
536 1 7.33904269 1.20996430 -0.24365795 -6.30184580e-03
537 1 7.46135119 1.20996669 -0.24362488 -6.28022129e-03