ITEM: TIMESTEP
0
ITEM: NUMBER OF ATOMS
10710
ITEM: BOX BOUNDS ff ff ff
-2.0 27.003845070924346
-2.0081448913885587 3.2177477175143636
-2.2453169821520973 8.459076589334826
ITEM: ATOMS id type x y z q
1 2 0.00000000 0.00000000 0.24527477 3.35542180e-03
2 2 0.00000000 0.00000000 -0.24472523 -3.35542180e-03
3 2 0.00000000 1.21000000 0.24527477 3.41686920e-03
4 2 0.00000000 1.21000000 -0.24472523 -3.41686920e-03
5 1 24.83711560 -0.00814489 6.43634139 3.37776783e-03
6 1 25.00384507 0.00149885 5.97565082 -3.37776783e-03
7 1 24.83023036 1.20162290 6.45907659 3.41686920e-03
8 1 24.99696029 1.21119501 5.99838526 -3.41686920e-03
9 2 0.00000000 0.00000000 -0.12222523 0.00000000e+00
10 2 0.00000000 0.00000000 0.00027477 0.00000000e+00
11 2 0.00000000 0.00000000 0.12277477 0.00000000e+00
12 2 0.00000000 0.12100000 0.24527477 5.18139194e-03
13 2 0.00000000 0.24200000 0.24527477 5.50362000e-03
14 2 0.00000000 0.36300000 0.24527477 5.01501884e-03
15 2 0.00000000 0.48400000 0.24527477 5.50904170e-03
16 2 0.00000000 0.60500000 0.24527477 6.02408537e-03
17 2 0.00000000 0.72600000 0.24527477 6.86123120e-03
18 2 0.00000000 0.84700000 0.24527477 6.83241897e-03
19 2 0.00000000 0.96800000 0.24527477 5.84994208e-03
20 2 0.00000000 1.08900000 0.24527477 4.96878236e-03
21 2 0.00000000 1.21000000 -0.12222523 0.00000000e+00
22 2 0.00000000 1.21000000 0.00027477 0.00000000e+00
23 2 0.00000000 1.21000000 0.12277477 0.00000000e+00
24 2 0.00000000 0.12100000 -0.24472523 -5.18139194e-03
25 2 0.00000000 0.24200000 -0.24472523 -5.50362000e-03
26 2 0.00000000 0.36300000 -0.24472523 -5.01501884e-03
27 2 0.00000000 0.48400000 -0.24472523 -5.50904170e-03
28 2 0.00000000 0.60500000 -0.24472523 -6.02408537e-03
29 2 0.00000000 0.72600000 -0.24472523 -6.86123120e-03
30 2 0.00000000 0.84700000 -0.24472523 -6.83241897e-03
31 2 0.00000000 0.96800000 -0.24472523 -5.84994208e-03
32 2 0.00000000 1.08900000 -0.24472523 -4.96878236e-03
33 1 24.96215832 -0.00091435 6.09081968 0.00000000e+00
34 1 24.92047885 -0.00332434 6.20599120 0.00000000e+00
35 1 24.87879914 -0.00573374 6.32116558 0.00000000e+00
36 1 24.83642881 0.11282810 6.43862362 5.05002864e-03
37 1 24.83573541 0.23380579 6.44090351 5.64089052e-03
38 1 24.83504418 0.35478156 6.44318442 5.44128437e-03
39 1 24.83435665 0.47575976 6.44546023 6.40224548e-03
40 1 24.83366710 0.59673864 6.44774059 6.88148315e-03
41 1 24.83297905 0.71771618 6.45001093 6.11583422e-03
42 1 24.83229235 0.83869381 6.45227908 5.69198232e-03
43 1 24.83160548 0.95967016 6.45454715 6.01735171e-03
44 1 24.83091819 1.08064845 6.45681357 5.43527194e-03
45 1 24.95527624 1.20880358 6.11355427 0.00000000e+00
46 1 24.91359610 1.20640908 6.22872770 0.00000000e+00
47 1 24.87191722 1.20401496 6.34390136 0.00000000e+00
48 1 25.00314976 0.12246799 5.97793077 -5.05002864e-03
49 1 25.00246103 0.24343800 5.98021271 -5.64089052e-03
50 1 25.00176755 0.36440977 5.98249157 -5.44128437e-03
51 1 25.00107934 0.48537854 5.98476859 -6.40224548e-03
52 1 25.00039275 0.60634703 5.98704430 -6.88148315e-03
53 1 24.99970702 0.72731535 5.98931750 -6.11583422e-03
54 1 24.99901745 0.84828404 5.99158431 -5.69198232e-03
55 1 24.99833039 0.96925498 5.99385119 -6.01735171e-03
56 1 24.99764150 1.09022549 5.99611724 -5.43527194e-03
57 1 0.12292071 0.00135662 -0.24531698 -4.80862070e-03
58 1 0.24602703 0.00241500 -0.24501362 -5.62714142e-03
59 1 0.36916042 0.00258015 -0.24443738 -6.00619986e-03
60 1 0.49261826 0.00255038 -0.24341237 -6.09052560e-03
61 1 0.61584741 0.00261600 -0.24179890 -6.09206826e-03
62 1 0.73915766 0.00313891 -0.23968919 -5.94781856e-03
63 1 0.86238169 0.00368168 -0.23721109 -5.82025544e-03
64 1 0.98555342 0.00334374 -0.23321544 -5.95871849e-03
65 1 1.10928016 0.00345183 -0.22943833 -6.09232315e-03
66 1 1.23266941 0.00324316 -0.22526166 -6.09205550e-03
67 1 1.35582623 0.00342584 -0.22024890 -6.08598370e-03
68 1 1.47908321 0.00388037 -0.21415821 -6.07933546e-03
69 1 1.60218978 0.00397292 -0.20849676 -6.08488133e-03
70 1 1.72528612 0.00393416 -0.20189923 -6.08161608e-03
71 1 1.84825757 0.00395528 -0.19483976 -6.08881076e-03
72 1 1.97176257 0.00384564 -0.18712651 -6.09207793e-03
73 1 2.09494746 0.00397753 -0.17913394 -6.09206431e-03
74 1 2.21807958 0.00439485 -0.17020802 -6.09206920e-03
75 1 2.34112603 0.00436155 -0.16109779 -6.09206749e-03
76 1 2.46392599 0.00422904 -0.15150754 -6.09206826e-03
77 1 2.58661164 0.00424813 -0.14152295 -6.09206901e-03
78 1 2.70951896 0.00382843 -0.13117830 -6.08547783e-03
79 1 2.83222098 0.00402910 -0.12034266 -6.07797420e-03
80 1 2.95488572 0.00458945 -0.10903183 -6.08460882e-03
81 1 3.07753080 0.00433458 -0.09732294 -6.08123045e-03
82 1 3.20001606 0.00448836 -0.08502107 -6.08867780e-03
83 1 3.32239342 0.00461015 -0.07229241 -6.09206866e-03
84 1 3.44495681 0.00469462 -0.05907718 -6.09206839e-03
85 1 3.56724888 0.00446397 -0.04573299 -6.09206833e-03
86 1 3.68967491 0.00427426 -0.03175384 -6.09206826e-03
87 1 3.81216964 0.00469482 -0.01743750 -6.09206824e-03
88 1 3.93437775 0.00483749 -0.00291071 -6.09206825e-03
89 1 4.05662833 0.00453119 0.01188871 -6.10477040e-03
90 1 4.17880730 0.00489066 0.02715586 -6.10144793e-03
91 1 4.30067576 0.00490833 0.04291772 -6.09206826e-03
92 1 4.42288202 0.00484441 0.05878589 -6.08473760e-03
93 1 4.54464082 0.00485411 0.07511107 -6.07718969e-03
94 1 4.66652632 0.00506035 0.09193914 -6.08430762e-03
95 1 4.78830839 0.00526917 0.10892720 -6.08084602e-03
96 1 4.91019087 0.00520942 0.12611934 -6.08857506e-03
97 1 5.03207075 0.00559448 0.14389523 -6.09439460e-03
98 1 5.15384021 0.00537403 0.16201731 -6.09360296e-03
99 1 5.27541444 0.00550972 0.18074517 -6.10212083e-03
100 1 5.39710914 0.00542174 0.19948680 -6.09455787e-03
101 1 5.51848603 0.00581461 0.21852729 -6.08457013e-03
102 1 5.63985979 0.00577876 0.23801523 -6.08334006e-03
103 1 5.76156188 0.00574534 0.25804577 -6.09025173e-03
104 1 5.88271278 0.00580973 0.27817969 -6.09206826e-03
105 1 6.00396159 0.00585912 0.29856574 -6.09206826e-03
106 1 6.12514104 0.00618882 0.31936429 -6.08838437e-03
107 1 6.24614791 0.00624804 0.34041793 -6.09329454e-03
108 1 6.36745521 0.00602825 0.36171056 -6.09400483e-03
109 1 6.48851972 0.00626516 0.38340314 -6.08872179e-03
110 1 6.60964508 0.00650171 0.40562973 -6.08812243e-03
111 1 6.73036271 0.00658610 0.42800456 -6.09206826e-03
112 1 6.85129013 0.00660903 0.45046317 -6.09206826e-03
113 1 6.97193512 0.00663455 0.47321478 -6.09206826e-03
114 1 7.09246739 0.00681821 0.49656997 -6.06302327e-03
115 1 7.21314546 0.00657458 0.52006442 -6.06302327e-03
116 1 7.33383397 0.00666685 0.54395153 -5.90236529e-03
117 1 7.45429677 0.00677541 0.56812000 -5.81608564e-03
118 1 7.57468557 0.00685743 0.59242146 -6.10035823e-03
119 1 7.69512704 0.00688806 0.61704414 -5.08741334e-03
120 1 7.81535532 0.00690908 0.64190281 -6.87719096e-03
121 1 7.93546115 0.00706441 0.66699159 -5.18694999e-03
122 1 8.05587711 0.00690143 0.69220860 -5.00655937e-03
123 1 8.17589738 0.00703610 0.71783948 -7.17602109e-03
124 1 8.29597549 0.00729109 0.74366480 -5.64123658e-03
125 1 8.41621747 0.00739756 0.76975259 -5.91249038e-03
126 1 8.53605827 0.00733196 0.79602382 -5.77202514e-03
127 1 8.65590084 0.00740670 0.82251559 -5.95689302e-03
128 1 8.77589433 0.00757730 0.84924964 -6.09206826e-03
129 1 8.89572172 0.00740123 0.87631720 -6.09206826e-03
130 1 9.01541870 0.00746078 0.90352027 -6.09206826e-03
131 1 9.13506410 0.00759045 0.93089476 -6.00199927e-03
132 1 9.25482391 0.00796032 0.95851958 -6.06987486e-03
133 1 9.37447324 0.00803487 0.98643906 -5.02835518e-03
134 1 9.49397557 0.00803872 1.01455861 -6.79157831e-03
135 1 9.61328390 0.00829036 1.04306807 -4.92113473e-03
136 1 9.73279520 0.00815535 1.07164947 -5.56259368e-03
137 1 9.85224668 0.00805397 1.10058411 -5.94323360e-03
138 1 9.97159083 0.00829736 1.12987330 -5.00637084e-03
139 1 10.09066525 0.00821856 1.15907756 -6.75640181e-03
140 1 10.20975369 0.00807144 1.18858658 -4.91035923e-03
141 1 10.32875376 0.00809380 1.21836233 -5.75765677e-03
142 1 10.44782596 0.00816433 1.24817533 -6.37465021e-03
143 1 10.56683543 0.00836884 1.27816554 -6.33172667e-03
144 1 10.68571397 0.00846957 1.30837458 -5.77695765e-03
145 1 10.80469721 0.00869727 1.33876653 -5.75602868e-03
146 1 10.92353559 0.00865471 1.36928103 -5.94989338e-03
147 1 11.04217834 0.00861514 1.40023004 -6.09206826e-03
148 1 11.16092724 0.00885781 1.43131892 -6.09206826e-03
149 1 11.27960339 0.00874720 1.46262152 -6.49862787e-03
150 1 11.39825422 0.00887997 1.49419337 -6.47806478e-03
151 1 11.51683060 0.00873780 1.52577487 -5.98398651e-03
152 1 11.63540936 0.00889680 1.55769334 -5.97118729e-03
153 1 11.75381720 0.00878811 1.58966137 -6.32827249e-03
154 1 11.87222443 0.00883645 1.62174015 -6.38296841e-03
155 1 11.99061877 0.00909958 1.65401403 -6.09206826e-03
156 1 12.10889606 0.00893406 1.68661025 -5.92176613e-03
157 1 12.22708539 0.00901746 1.71924785 -5.84196899e-03
158 1 12.34512419 0.00900513 1.75203657 -5.89327746e-03
159 1 12.46332819 0.00909326 1.78517109 -4.96011300e-03
160 1 12.58137647 0.00913972 1.81829986 -6.65158567e-03
161 1 12.69936237 0.00915295 1.85169749 -4.90989307e-03
162 1 12.81748327 0.00915417 1.88514147 -5.52395043e-03
163 1 12.93542253 0.00931003 1.91883210 -5.87068470e-03
164 1 13.05330087 0.00931883 1.95261723 -4.88602194e-03
165 1 13.17108855 0.00938660 1.98658330 -6.40279006e-03
166 1 13.28886932 0.00937025 2.02064785 -5.12407601e-03
167 1 13.40658616 0.00933123 2.05492621 -4.88216806e-03
168 1 13.52427460 0.00932417 2.08928396 -6.38017819e-03
169 1 13.64189345 0.00949322 2.12382634 -5.11373203e-03
170 1 13.75946922 0.00943204 2.15852829 -4.85398664e-03
171 1 13.87705408 0.00941866 2.19336283 -6.35577596e-03
172 1 13.99446508 0.00954003 2.22838910 -5.10698016e-03
173 1 14.11198344 0.00940767 2.26345690 -4.85870271e-03
174 1 14.22934290 0.00943120 2.29882728 -6.37702085e-03
175 1 14.34672327 0.00931311 2.33414546 -5.10092274e-03
176 1 14.46403277 0.00938713 2.36964560 -4.84968636e-03
177 1 14.58125762 0.00944511 2.40530404 -6.37599125e-03
178 1 14.69854541 0.00944916 2.44107541 -4.87710407e-03
179 1 14.81578684 0.00946764 2.47702965 -5.56677439e-03
180 1 14.93298128 0.00934107 2.51303855 -5.93477518e-03
181 1 15.05010141 0.00944189 2.54923577 -6.09206826e-03
182 1 15.16719683 0.00937844 2.58551451 -6.09206826e-03
183 1 15.28421662 0.00943225 2.62191892 -5.98211588e-03
184 1 15.40115620 0.00939689 2.65846017 -5.88223740e-03
185 1 15.51810083 0.00941838 2.69519736 -5.93479953e-03
186 1 15.63502545 0.00920664 2.73204422 -4.77734034e-03
187 1 15.75182244 0.00921593 2.76895335 -6.31776323e-03
188 1 15.86863948 0.00927232 2.80595475 -4.85845554e-03
189 1 15.98546181 0.00928663 2.84315595 -5.48045656e-03
190 1 16.10219556 0.00921505 2.88042951 -5.74774533e-03
191 1 16.21881399 0.00912203 2.91783333 -5.91938606e-03
192 1 16.33549516 0.00903601 2.95544367 -4.72601755e-03
193 1 16.45212882 0.00905517 2.99309853 -6.44309587e-03
194 1 16.56863142 0.00901222 3.03079687 -5.21392668e-03
195 1 16.68517224 0.00895475 3.06854441 -4.32492230e-03
196 1 16.80169945 0.00891117 3.10646320 -6.11554878e-03
197 1 16.91811803 0.00886198 3.14452384 -5.20526136e-03
198 1 17.03463165 0.00883747 3.18268885 -4.31230685e-03
199 1 17.15097546 0.00879395 3.22085221 -6.11716232e-03
200 1 17.26726666 0.00883909 3.25922962 -5.69773107e-03
201 1 17.38360920 0.00867838 3.29765300 -5.99314584e-03
202 1 17.49992555 0.00868119 3.33621062 -4.76350900e-03
203 1 17.61612793 0.00856795 3.37492346 -5.21120302e-03
204 1 17.73237012 0.00852051 3.41362032 -6.01204532e-03
205 1 17.84849767 0.00843400 3.45240841 -5.73233737e-03
206 1 17.96466986 0.00829887 3.49133186 -5.81943467e-03
207 1 18.08071690 0.00827495 3.53032905 -6.32655047e-03
208 1 18.19686299 0.00817869 3.56945285 -5.03614005e-03
209 1 18.31289742 0.00810315 3.60854874 -4.70280803e-03
210 1 18.42884941 0.00802584 3.64783336 -8.65683464e-03
211 1 18.54485442 0.00800582 3.68714822 -5.94692004e-03
212 1 18.66073154 0.00790923 3.72661863 -5.65885778e-03
213 1 18.77671747 0.00782077 3.76608383 -5.99277035e-03
214 1 18.89257026 0.00767731 3.80569366 -6.04066598e-03
215 1 19.00838368 0.00755335 3.84532642 -6.09206826e-03
216 1 19.12425783 0.00758625 3.88511122 -6.09206826e-03
217 1 19.24000397 0.00750372 3.92488931 -6.09206826e-03
218 1 19.35580212 0.00733854 3.96473958 -5.94140402e-03
219 1 19.47153040 0.00721469 4.00466637 -6.09135703e-03
220 1 19.58723291 0.00714745 4.04466681 -6.09135703e-03
221 1 19.70295879 0.00705805 4.08473918 -6.09206826e-03
222 1 19.81861823 0.00695456 4.12486543 -6.22362401e-03
223 1 19.93420627 0.00691914 4.16506131 -6.30618064e-03
224 1 20.04983687 0.00677779 4.20531428 -6.16079228e-03
225 1 20.16542982 0.00664320 4.24560537 -6.90076158e-03
226 1 20.28097379 0.00655284 4.28595952 -7.19612184e-03
227 1 20.39653836 0.00645730 4.32637327 -6.17999120e-03
228 1 20.51206153 0.00639273 4.36685646 -5.85545161e-03
229 1 20.62755149 0.00627660 4.40738393 -6.04373412e-03
230 1 20.74304122 0.00621013 4.44801005 -6.05837687e-03
231 1 20.85851134 0.00606706 4.48866894 -6.22625934e-03
232 1 20.97391815 0.00593151 4.52936218 -6.96326852e-03
233 1 21.08935436 0.00582287 4.57009792 -6.60839364e-03
234 1 21.20470901 0.00573350 4.61092310 -6.08325267e-03
235 1 21.32004769 0.00561209 4.65181106 -5.98999100e-03
236 1 21.43540101 0.00551535 4.69271736 -6.02220795e-03
237 1 21.55072363 0.00536021 4.73367905 -5.94934321e-03
238 1 21.66602337 0.00523157 4.77467657 -6.23085673e-03
239 1 21.78128255 0.00512017 4.81569510 -5.91383044e-03
240 1 21.89657726 0.00502285 4.85677392 -5.82022831e-03
241 1 22.01181902 0.00488113 4.89786882 -6.06616825e-03
242 1 22.12706538 0.00471904 4.93904561 -6.09206826e-03
243 1 22.24225596 0.00461030 4.98023046 -6.22108889e-03
244 1 22.35745799 0.00453706 5.02143417 -6.93510095e-03
245 1 22.47262640 0.00441498 5.06269650 -6.55067958e-03
246 1 22.58782439 0.00426966 5.10396705 -5.44215936e-03
247 1 22.70295595 0.00415857 5.14526911 -5.52453627e-03
248 1 22.81811244 0.00405906 5.18661621 -6.11677386e-03
249 1 22.93322032 0.00392263 5.22796974 -5.40422112e-03
250 1 23.04834585 0.00376784 5.26937195 -5.51625079e-03
251 1 23.16345502 0.00363070 5.31080446 -6.10817079e-03
252 1 23.27854216 0.00349463 5.35225425 -5.39058303e-03
253 1 23.39361647 0.00336965 5.39372603 -5.51111698e-03
254 1 23.50869708 0.00322055 5.43521141 -6.09959331e-03
255 1 23.62375153 0.00308438 5.47670861 -5.37708140e-03
256 1 23.73880046 0.00298267 5.51823607 -5.50601994e-03
257 1 23.85384191 0.00284170 5.55975991 -6.09132348e-03
258 1 23.96887196 0.00269621 5.60130990 -5.36406280e-03
259 1 24.08389181 0.00256947 5.64288057 -5.50114066e-03
260 1 24.19889732 0.00243342 5.68445341 -6.07613573e-03
261 1 24.31390615 0.00230110 5.72603810 -5.86576563e-03
262 1 24.42890819 0.00216075 5.76762676 -5.87763703e-03
263 1 24.54391083 0.00202930 5.80922346 -5.79509293e-03
264 1 24.65889943 0.00189645 5.85082535 -6.45795830e-03
265 1 24.77388777 0.00175932 5.89243186 -6.36067877e-03
266 1 24.88886880 0.00162613 5.93403826 -5.01672083e-03
267 1 0.12178272 -0.00105392 0.24459480 4.80862070e-03
268 1 0.24343609 -0.00201843 0.24461413 5.62714142e-03
269 1 0.36503869 -0.00205906 0.24499402 6.00619986e-03
270 1 0.48653204 -0.00220957 0.24650741 6.09052560e-03
271 1 0.60751538 -0.00286826 0.24814451 6.09206826e-03
272 1 0.72902104 -0.00319342 0.25011672 5.94781856e-03
273 1 0.85043730 -0.00330574 0.25305417 5.82025544e-03
274 1 0.97139697 -0.00275532 0.25611365 5.95871849e-03
275 1 1.09241444 -0.00272015 0.26004807 6.09232315e-03
276 1 1.21368859 -0.00285222 0.26476615 6.09205550e-03
277 1 1.33486734 -0.00257871 0.26940374 6.08598370e-03
278 1 1.45622976 -0.00283451 0.27456300 6.07933546e-03
279 1 1.57760531 -0.00297916 0.28064863 6.08488133e-03
280 1 1.69838768 -0.00295483 0.28699432 6.08161608e-03
281 1 1.81960260 -0.00320275 0.29411840 6.08881076e-03
282 1 1.94095740 -0.00337312 0.30167511 6.09207793e-03
283 1 2.06142173 -0.00315152 0.30942102 6.09206431e-03
284 1 2.18275793 -0.00267692 0.31781876 6.09206920e-03
285 1 2.30384642 -0.00281129 0.32702417 6.09206749e-03
286 1 2.42501364 -0.00275083 0.33664591 6.09206826e-03
287 1 2.54612224 -0.00261719 0.34632335 6.09206901e-03
288 1 2.66733487 -0.00281119 0.35698651 6.08547783e-03
289 1 2.78815599 -0.00270335 0.36753449 6.07797420e-03
290 1 2.90905748 -0.00254874 0.37878884 6.08460882e-03
291 1 3.03009535 -0.00223842 0.39033842 6.08123045e-03
292 1 3.15112359 -0.00214340 0.40262321 6.08867780e-03
293 1 3.27173657 -0.00217924 0.41493722 6.09206866e-03
294 1 3.39256935 -0.00244085 0.42772094 6.09206839e-03
295 1 3.51335448 -0.00210712 0.44110222 6.09206833e-03
296 1 3.63416498 -0.00213876 0.45485031 6.09206826e-03
297 1 3.75511460 -0.00218530 0.46896321 6.09206824e-03
298 1 3.87566378 -0.00229500 0.48330333 6.09206825e-03
299 1 3.99633041 -0.00221439 0.49817722 6.10477040e-03
300 1 4.11675678 -0.00197190 0.51322499 6.10144793e-03
301 1 4.23759100 -0.00189138 0.52871059 6.09206826e-03
302 1 4.35829886 -0.00182255 0.54453529 6.08473760e-03
303 1 4.47895999 -0.00205554 0.56038201 6.07718969e-03
304 1 4.59961783 -0.00234705 0.57682408 6.08430762e-03
305 1 4.72001452 -0.00173374 0.59379206 6.08084602e-03
306 1 4.84036818 -0.00179868 0.61097816 6.08857506e-03
307 1 4.96068893 -0.00196358 0.62863662 6.09439460e-03
308 1 5.08102545 -0.00206366 0.64661975 6.09360296e-03
309 1 5.20122519 -0.00159576 0.66472800 6.10212083e-03
310 1 5.32124922 -0.00170839 0.68332369 6.09455787e-03
311 1 5.44150161 -0.00168965 0.70228321 6.08457013e-03
312 1 5.56171483 -0.00155233 0.72155017 6.08334006e-03
313 1 5.68171936 -0.00151062 0.74104936 6.09025173e-03
314 1 5.80180125 -0.00164918 0.76094904 6.09206826e-03
315 1 5.92203841 -0.00170558 0.78126254 6.09206826e-03
316 1 6.04194474 -0.00158867 0.80176075 6.08838437e-03
317 1 6.16172862 -0.00133458 0.82282892 6.09329454e-03
318 1 6.28136270 -0.00177743 0.84409400 6.09400483e-03
319 1 6.40128865 -0.00172804 0.86553593 6.08872179e-03
320 1 6.52118925 -0.00163817 0.88724669 6.08812243e-03
321 1 6.64078617 -0.00142641 0.90910284 6.09206826e-03
322 1 6.76045968 -0.00144318 0.93161648 6.09206826e-03
323 1 6.88012508 -0.00119515 0.95450181 6.09206826e-03
324 1 6.99955306 -0.00123129 0.97750992 6.06302327e-03
325 1 7.11898787 -0.00106767 1.00083142 6.06302327e-03
326 1 7.23837949 -0.00102205 1.02437219 5.90236529e-03
327 1 7.35788180 -0.00088695 1.04831452 5.81608564e-03
328 1 7.47734766 -0.00065236 1.07249458 6.10035823e-03
329 1 7.59655117 -0.00082440 1.09693801 5.08741347e-03
330 1 7.71611848 -0.00083714 1.12142113 6.88423117e-03
331 1 7.83527854 -0.00066430 1.14650350 4.95164977e-03
332 1 7.95426407 -0.00060277 1.17140512 5.63292633e-03
333 1 8.07343937 -0.00069721 1.19684652 5.95654755e-03
334 1 8.19260202 -0.00066700 1.22244091 6.00432988e-03
335 1 8.31168409 -0.00051956 1.24825930 6.08757506e-03
336 1 8.43068988 -0.00046430 1.27438908 5.05700823e-03
337 1 8.54972782 -0.00061257 1.30063702 6.83715280e-03
338 1 8.66863860 -0.00044586 1.32707135 4.93632937e-03
339 1 8.78761446 -0.00057654 1.35397844 5.62467055e-03
340 1 8.90636840 -0.00070629 1.38091722 5.95386311e-03
341 1 9.02499828 -0.00063138 1.40820194 6.00199927e-03
342 1 9.14382330 -0.00061540 1.43572957 6.06987486e-03
343 1 9.26226682 -0.00064218 1.46340650 5.01509653e-03
344 1 9.38104967 -0.00051627 1.49126052 6.78511241e-03
345 1 9.49959652 -0.00057317 1.51940662 4.92113473e-03
346 1 9.61811374 -0.00061797 1.54796232 5.61645056e-03
347 1 9.73646582 -0.00040763 1.57666614 5.95118153e-03
348 1 9.85488326 -0.00045592 1.60547752 6.09206826e-03
349 1 9.97311207 -0.00036568 1.63469221 6.09206826e-03
350 1 10.09144634 -0.00037960 1.66391109 6.09206826e-03
351 1 10.20984063 -0.00028100 1.69345216 6.50085567e-03
352 1 10.32811873 -0.00026125 1.72308409 6.38496347e-03
353 1 10.44644959 -0.00026562 1.75291892 5.77251663e-03
354 1 10.56450055 -0.00028603 1.78294858 5.73476969e-03
355 1 10.68272359 -0.00030918 1.81318920 5.94888879e-03
356 1 10.80079877 -0.00051313 1.84359876 6.09206826e-03
357 1 10.91875505 -0.00031909 1.87420895 6.09206826e-03
358 1 11.03674296 -0.00036629 1.90510969 6.09206826e-03
359 1 11.15460742 -0.00047166 1.93614167 6.09206826e-03
360 1 11.27227223 -0.00034356 1.96749749 4.98457375e-03
361 1 11.39020076 -0.00024534 1.99898044 6.69756871e-03
362 1 11.50805517 -0.00014845 2.03063961 5.15375987e-03
363 1 11.62567513 -0.00016562 2.06236620 4.95985007e-03
364 1 11.74334372 -0.00017514 2.09425650 6.48212442e-03
365 1 11.86107705 -0.00024516 2.12650300 5.14927068e-03
366 1 11.97865835 -0.00012374 2.15877291 4.95341033e-03
367 1 12.09617791 -0.00035011 2.19134010 6.46347279e-03
368 1 12.21362380 -0.00010398 2.22391471 5.14043101e-03
369 1 12.33099542 -0.00025494 2.25678475 4.91020010e-03
370 1 12.44857000 -0.00015753 2.28975813 6.45556760e-03
371 1 12.56601889 -0.00015199 2.32294608 4.90989307e-03
372 1 12.68337237 -0.00022428 2.35629554 5.52395043e-03
373 1 12.80066344 -0.00012554 2.38976450 5.87068470e-03
374 1 12.91782616 -0.00010411 2.42343256 4.87920209e-03
375 1 13.03507766 -0.00016704 2.45719671 6.41661913e-03
376 1 13.15223825 -0.00014937 2.49113772 4.89988333e-03
377 1 13.26942607 -0.00007520 2.52516078 5.51681014e-03
378 1 13.38655312 -0.00005790 2.55940250 5.85936171e-03
379 1 13.50349749 -0.00012312 2.59383085 4.85938456e-03
380 1 13.62049017 -0.00008281 2.62827073 6.38254444e-03
381 1 13.73756550 -0.00020181 2.66289041 4.88995824e-03
382 1 13.85451526 -0.00020232 2.69776401 5.57476230e-03
383 1 13.97137748 -0.00002790 2.73274184 5.93743790e-03
384 1 14.08818917 -0.00026689 2.76779475 5.98766457e-03
385 1 14.20502272 -0.00025203 2.80295435 5.96043235e-03
386 1 14.32177809 -0.00017082 2.83839095 4.81637844e-03
387 1 14.43858707 -0.00024547 2.87398845 6.34214196e-03
388 1 14.55535091 -0.00021423 2.90953938 4.87620659e-03
389 1 14.67202801 -0.00021744 2.94525777 5.56677439e-03
390 1 14.78868842 -0.00033923 2.98108974 5.93477518e-03
391 1 14.90522291 -0.00036947 3.01710341 5.98532808e-03
392 1 15.02178918 -0.00032398 3.05327046 5.94249673e-03
393 1 15.13826951 -0.00044212 3.08951425 4.79106117e-03
394 1 15.25474713 -0.00053869 3.12595775 6.34873408e-03
395 1 15.37111260 -0.00036360 3.16249499 5.10720957e-03
396 1 15.48747504 -0.00054541 3.19918919 4.79385489e-03
397 1 15.60387750 -0.00065427 3.23592839 6.33054845e-03
398 1 15.72027775 -0.00075820 3.27289868 5.10009402e-03
399 1 15.83647697 -0.00077694 3.30984290 4.78369059e-03
400 1 15.95284961 -0.00071539 3.34698163 6.31203828e-03
401 1 16.06910069 -0.00078670 3.38421624 5.09300092e-03
402 1 16.18520415 -0.00079314 3.42155338 4.74903927e-03
403 1 16.30134589 -0.00085252 3.45911830 6.32830758e-03
404 1 16.41759052 -0.00087646 3.49667346 5.08343922e-03
405 1 16.53370233 -0.00094989 3.53445501 4.32591159e-03
406 1 16.64974929 -0.00110412 3.57221365 6.00104739e-03
407 1 16.76582517 -0.00103294 3.61015068 5.21119202e-03
408 1 16.88172544 -0.00119866 3.64808895 6.09206826e-03
409 1 16.99776756 -0.00128930 3.68619504 6.05153388e-03
410 1 17.11366246 -0.00128844 3.72437375 5.91774538e-03
411 1 17.22963735 -0.00139016 3.76266247 6.22305381e-03
412 1 17.34553694 -0.00140004 3.80113550 5.03791106e-03
413 1 17.46136934 -0.00150481 3.83967012 4.72607940e-03
414 1 17.57725276 -0.00152237 3.87827458 8.71836332e-03
415 1 17.69306415 -0.00166258 3.91697972 5.95355142e-03
416 1 17.80884987 -0.00168154 3.95574688 5.36960420e-03
417 1 17.92460741 -0.00188883 3.99461934 6.03255871e-03
418 1 18.04032090 -0.00193166 4.03354932 5.00245570e-03
419 1 18.15594765 -0.00203931 4.07256955 4.70280803e-03
420 1 18.27161995 -0.00202270 4.11175057 8.65685956e-03
421 1 18.38725107 -0.00212152 4.15100544 5.94692135e-03
422 1 18.50291468 -0.00224361 4.19028458 5.65886656e-03
423 1 18.61852095 -0.00230413 4.22971594 5.98663784e-03
424 1 18.73401109 -0.00238370 4.26920889 6.03862808e-03
425 1 18.84955435 -0.00250373 4.30874682 6.08821513e-03
426 1 18.96512808 -0.00257447 4.34837388 6.17296108e-03
427 1 19.08066236 -0.00267155 4.38811207 6.04911048e-03
428 1 19.19613042 -0.00268444 4.42785762 6.99423467e-03
429 1 19.31159770 -0.00276941 4.46770762 6.49916941e-03
430 1 19.42705797 -0.00288957 4.50761336 6.05139015e-03
431 1 19.54242257 -0.00294489 4.54764010 6.07023001e-03
432 1 19.65784025 -0.00308317 4.58763968 6.06423220e-03
433 1 19.77322853 -0.00319035 4.62774372 6.03339671e-03
434 1 19.88863553 -0.00332727 4.66787830 6.06123277e-03
435 1 20.00394509 -0.00337023 4.70810843 6.05523286e-03
436 1 20.11926889 -0.00351605 4.74839688 6.01539697e-03
437 1 20.23460825 -0.00356041 4.78875524 6.05223237e-03
438 1 20.34992635 -0.00370494 4.82911350 6.04623034e-03
439 1 20.46513726 -0.00380374 4.86955651 5.99739088e-03
440 1 20.58042663 -0.00390652 4.91009414 6.03386113e-03
441 1 20.69568504 -0.00401025 4.95070323 6.06015229e-03
442 1 20.81087059 -0.00414205 4.99131702 6.93292310e-03
443 1 20.92602589 -0.00420902 5.03201567 6.60839364e-03
444 1 21.04120206 -0.00434014 5.07276050 6.08325267e-03
445 1 21.15636533 -0.00441690 5.11354070 5.98999100e-03
446 1 21.27153319 -0.00451919 5.15439215 6.02220795e-03
447 1 21.38667203 -0.00462192 5.19527633 5.94934321e-03
448 1 21.50179674 -0.00476952 5.23620645 6.00521256e-03
449 1 21.61692633 -0.00486980 5.27721985 5.96042100e-03
450 1 21.73200108 -0.00496295 5.31821911 6.01327673e-03
451 1 21.84710504 -0.00504613 5.35928901 6.06616825e-03
452 1 21.96218634 -0.00517834 5.40037896 6.09206826e-03
453 1 22.07726278 -0.00529899 5.44151854 6.22108889e-03
454 1 22.19234173 -0.00541662 5.48268284 6.93510095e-03
455 1 22.30739240 -0.00552778 5.52388512 6.55067958e-03
456 1 22.42240549 -0.00564616 5.56511980 5.44215936e-03
457 1 22.53745255 -0.00577798 5.60637342 5.52453627e-03
458 1 22.65248728 -0.00587316 5.64767744 6.09206826e-03
459 1 22.76749765 -0.00597813 5.68901503 5.52769247e-03
460 1 22.88251230 -0.00610850 5.73036518 5.54504444e-03
461 1 22.99751910 -0.00621831 5.77177359 6.09206826e-03
462 1 23.11249426 -0.00634838 5.81317939 5.52433613e-03
463 1 23.22750065 -0.00646476 5.85461652 5.54169116e-03
464 1 23.34248268 -0.00656077 5.89606899 6.09959331e-03
465 1 23.45746366 -0.00669604 5.93754456 5.37708140e-03
466 1 23.57245209 -0.00681333 5.97904515 5.50601994e-03
467 1 23.68743091 -0.00693453 6.02056590 6.09132348e-03
468 1 23.80239319 -0.00705306 6.06209862 5.36406280e-03
469 1 23.91736868 -0.00717287 6.10364628 5.50114066e-03
470 1 24.03233305 -0.00728784 6.14519638 6.07613573e-03
471 1 24.14731092 -0.00741457 6.18677140 5.86576563e-03
472 1 24.26227678 -0.00753097 6.22835293 5.87763704e-03
473 1 24.37724285 -0.00764862 6.26993599 5.79509293e-03
474 1 24.49221020 -0.00777480 6.31153510 6.45795830e-03
475 1 24.60717732 -0.00789636 6.35313173 6.36067877e-03
476 1 24.72214663 -0.00801790 6.39473464 5.01672083e-03
477 1 0.12278304 1.20888666 -0.24467246 -5.06599779e-03
478 1 0.24565256 1.20844819 -0.24476564 -5.96099493e-03
479 1 0.36896496 1.20761632 -0.24388567 -6.06828787e-03
480 1 0.49231717 1.20785461 -0.24270364 -6.09081051e-03
481 1 0.61555704 1.20781717 -0.24071400 -6.09597885e-03
482 1 0.73878058 1.20793745 -0.23840087 -6.09677124e-03
483 1 0.86249001 1.20746837 -0.23528243 -6.09261604e-03
484 1 0.98583551 1.20779687 -0.23181277 -6.09210769e-03
485 1 1.10943390 1.20745513 -0.22721345 -6.09159289e-03
486 1 1.23253187 1.20751218 -0.22248058 -6.09258964e-03
487 1 1.35582595 1.20834830 -0.21764003 -6.11404233e-03
488 1 1.47891789 1.20846319 -0.21176969 -6.12924398e-03
489 1 1.60185579 1.20792735 -0.20557178 -6.13810471e-03
490 1 1.72493025 1.20802208 -0.19908163 -6.10740278e-03
491 1 1.84816010 1.20791632 -0.19181803 -6.11299929e-03
492 1 1.97133192 1.20807101 -0.18354268 -6.11651709e-03
493 1 2.09430462 1.20786189 -0.17578828 -6.10892752e-03
494 1 2.21734430 1.20859524 -0.16704424 -6.08383817e-03
495 1 2.34044400 1.20890790 -0.15768827 -6.07811671e-03
496 1 2.46316684 1.20872921 -0.14768700 -6.12167487e-03
497 1 2.58579724 1.20843756 -0.13763148 -6.12891596e-03
498 1 2.70862503 1.20886006 -0.12721442 -6.13439434e-03
499 1 2.83155754 1.20919056 -0.11590810 -6.11877956e-03
500 1 2.95425489 1.20886974 -0.10432287 -6.09486572e-03
501 1 3.07684185 1.20925090 -0.09236872 -6.09206826e-03
502 1 3.19971092 1.20925466 -0.07991224 -6.09206855e-03
503 1 3.32214291 1.20926162 -0.06693647 -6.09206932e-03
504 1 3.44425001 1.20941868 -0.05364505 -6.11378764e-03
505 1 3.56715355 1.21002837 -0.04001066 -6.10132488e-03
506 1 3.68917043 1.21020423 -0.02587144 -6.14015253e-03
507 1 3.81134736 1.21003058 -0.01160320 -6.18862768e-03
508 1 3.93332917 1.21040199 0.00353234 -6.20494803e-03
509 1 4.05541394 1.21043560 0.01844346 -6.16689241e-03
510 1 4.17730643 1.21047784 0.03407442 -6.13536340e-03
511 1 4.29932664 1.21046287 0.04979440 -6.09206826e-03
512 1 4.42119439 1.21047807 0.06590053 -6.09528258e-03
513 1 4.54322184 1.21082094 0.08223116 -6.10197805e-03
514 1 4.66529236 1.21072469 0.09900150 -6.09705471e-03
515 1 4.78700421 1.21094837 0.11623243 -6.06436498e-03
516 1 4.90896145 1.21074867 0.13403113 -6.12133674e-03
517 1 5.03047885 1.21102404 0.15184803 -6.20974613e-03
518 1 5.15211760 1.21129451 0.17010795 -6.24802334e-03
519 1 5.27354583 1.21144745 0.18878163 -6.19819175e-03
520 1 5.39521306 1.21112374 0.20778126 -6.15088270e-03
521 1 5.51684343 1.21128816 0.22712213 -6.13301438e-03
522 1 5.63816114 1.21171702 0.24678619 -6.10131989e-03
523 1 5.75968578 1.21172724 0.26681374 -6.05757291e-03
524 1 5.88094025 1.21201926 0.28713509 -6.04491082e-03
525 1 6.00195942 1.21197716 0.30800834 -6.05437557e-03
526 1 6.12326181 1.21234666 0.32891691 -6.06489385e-03
527 1 6.24423081 1.21255394 0.35015335 -6.09206826e-03
528 1 6.36522916 1.21277248 0.37180469 -6.09206826e-03
529 1 6.48623069 1.21253575 0.39377612 -6.09979510e-03
530 1 6.60702425 1.21267312 0.41604173 -6.12512692e-03
531 1 6.72789865 1.21298413 0.43851738 -6.16578501e-03
532 1 6.84868748 1.21283419 0.46156294 -6.26929389e-03
533 1 6.96918303 1.21295736 0.48455055 -6.28695529e-03
534 1 7.09003120 1.21336004 0.50767326 -6.28583704e-03
535 1 7.21058558 1.21327032 0.53129026 -6.23881179e-03
536 1 7.33127348 1.21339601 0.55528981 -6.30184580e-03
537 1 7.45168252 1.21356512 0.57950464 -6.28022129e-03