ITEM: TIMESTEP
0
ITEM: NUMBER OF ATOMS
10710
ITEM: BOX BOUNDS ff ff ff
-2.0 24.273608886899723
-2.0112788921616613 4.5134484189567825
-2.246344189776618 15.059966488224468
ITEM: ATOMS id type x y z q
1 2 0.00000000 0.00000000 0.24527477 3.35542180e-03
2 2 0.00000000 0.00000000 -0.24472523 -3.35542180e-03
3 2 0.00000000 1.21000000 0.24527477 3.41686920e-03
4 2 0.00000000 1.21000000 -0.24472523 -3.41686920e-03
5 1 22.04677036 1.26847697 13.00755567 3.37776783e-03
6 1 22.27360889 1.31222794 12.57484471 -3.37776783e-03
7 1 21.91391570 2.46915187 13.05996649 3.41686920e-03
8 1 22.14058450 2.51344842 12.62725413 -3.41686920e-03
9 2 0.00000000 0.00000000 -0.12222523 0.00000000e+00
10 2 0.00000000 0.00000000 0.00027477 0.00000000e+00
11 2 0.00000000 0.00000000 0.12277477 0.00000000e+00
12 2 0.00000000 0.12100000 0.24527477 5.18139194e-03
13 2 0.00000000 0.24200000 0.24527477 5.50362000e-03
14 2 0.00000000 0.36300000 0.24527477 5.01501884e-03
15 2 0.00000000 0.48400000 0.24527477 5.50904170e-03
16 2 0.00000000 0.60500000 0.24527477 6.02408537e-03
17 2 0.00000000 0.72600000 0.24527477 6.86123120e-03
18 2 0.00000000 0.84700000 0.24527477 6.83241897e-03
19 2 0.00000000 0.96800000 0.24527477 5.84994208e-03
20 2 0.00000000 1.08900000 0.24527477 4.96878236e-03
21 2 0.00000000 1.21000000 -0.12222523 0.00000000e+00
22 2 0.00000000 1.21000000 0.00027477 0.00000000e+00
23 2 0.00000000 1.21000000 0.12277477 0.00000000e+00
24 2 0.00000000 0.12100000 -0.24472523 -5.18139194e-03
25 2 0.00000000 0.24200000 -0.24472523 -5.50362000e-03
26 2 0.00000000 0.36300000 -0.24472523 -5.01501884e-03
27 2 0.00000000 0.48400000 -0.24472523 -5.50904170e-03
28 2 0.00000000 0.60500000 -0.24472523 -6.02408537e-03
29 2 0.00000000 0.72600000 -0.24472523 -6.86123120e-03
30 2 0.00000000 0.84700000 -0.24472523 -6.83241897e-03
31 2 0.00000000 0.96800000 -0.24472523 -5.84994208e-03
32 2 0.00000000 1.08900000 -0.24472523 -4.96878236e-03
33 1 22.21688747 1.30128217 12.68304324 0.00000000e+00
34 1 22.16017242 1.29033680 12.79120832 0.00000000e+00
35 1 22.10346083 1.27940263 12.89937142 0.00000000e+00
36 1 22.03349959 1.38856292 13.01274405 5.05002864e-03
37 1 22.02024616 1.50863555 13.01794217 5.64089052e-03
38 1 22.00698526 1.62871440 13.02313707 5.44128437e-03
39 1 21.99375362 1.74878743 13.02835790 6.40224548e-03
40 1 21.98043620 1.86883936 13.03357021 6.88148315e-03
41 1 21.96715770 1.98889902 13.03880162 6.11583422e-03
42 1 21.95385006 2.10896804 13.04406984 5.69198232e-03
43 1 21.94050799 2.22904529 13.04937796 6.01735171e-03
44 1 21.92719576 2.34909535 13.05466202 5.43527194e-03
45 1 22.08390999 2.50237262 12.73544671 0.00000000e+00
46 1 22.02722829 2.49130330 12.84360194 0.00000000e+00
47 1 21.97055386 2.48022945 12.95177003 0.00000000e+00
48 1 22.26033598 1.43233413 12.58005474 -5.05002864e-03
49 1 22.24705818 1.55246191 12.58527446 -5.64089052e-03
50 1 22.23378128 1.67257219 12.59043272 -5.44128437e-03
51 1 22.22050227 1.79270212 12.59562474 -6.40224548e-03
52 1 22.20721117 1.91283567 12.60085636 -6.88148315e-03
53 1 22.19390127 2.03297980 12.60615492 -6.11583422e-03
54 1 22.18057755 2.15312395 12.61138494 -5.69198232e-03
55 1 22.16724553 2.27324337 12.61667889 -6.01735171e-03
56 1 22.15393588 2.39334707 12.62198075 -5.43527194e-03
57 1 0.12555538 0.00600788 -0.24634419 -4.80862070e-03
58 1 0.25184946 0.01072818 -0.24396309 -5.62714142e-03
59 1 0.37840360 0.01161144 -0.24050369 -6.00619986e-03
60 1 0.50657144 0.01169541 -0.23510164 -6.09052560e-03
61 1 0.63338568 0.01227083 -0.22704695 -6.09206826e-03
62 1 0.76033725 0.01480695 -0.21696370 -5.94781856e-03
63 1 0.88675087 0.01735718 -0.20478157 -5.82025544e-03
64 1 1.01242415 0.01657505 -0.18676188 -5.95871849e-03
65 1 1.14030051 0.01778734 -0.16900201 -6.09232315e-03
66 1 1.26653051 0.01788724 -0.15002664 -6.09205550e-03
67 1 1.39122210 0.01947988 -0.12789691 -6.08598370e-03
68 1 1.51567284 0.02220589 -0.10124775 -6.07933546e-03
69 1 1.63995017 0.02382957 -0.07659812 -6.08488133e-03
70 1 1.76336028 0.02503236 -0.04811616 -6.08161608e-03
71 1 1.88608022 0.02661269 -0.01818838 -6.08881076e-03
72 1 2.00994666 0.02789718 0.01447839 -6.09207793e-03
73 1 2.13250354 0.02990125 0.04808490 -6.09206431e-03
74 1 2.25411767 0.03305698 0.08496324 -6.09206920e-03
75 1 2.37530437 0.03473710 0.12244699 -6.09206749e-03
76 1 2.49523950 0.03615377 0.16119226 -6.09206826e-03
77 1 2.61436786 0.03833778 0.20130266 -6.09206901e-03
78 1 2.73392505 0.03904151 0.24265827 -6.08547783e-03
79 1 2.85216229 0.04192351 0.28553552 -6.07797420e-03
80 1 2.96974437 0.04590961 0.33015307 -6.08460882e-03
81 1 3.08710012 0.04755955 0.37561844 -6.08123045e-03
82 1 3.20327959 0.05047450 0.42289208 -6.08867780e-03
83 1 3.31870496 0.05335455 0.47122240 -6.09206866e-03
84 1 3.43408527 0.05629309 0.52113231 -6.09206839e-03
85 1 3.54863828 0.05832262 0.57123404 -6.09206833e-03
86 1 3.66307279 0.06049775 0.62311594 -6.09206826e-03
87 1 3.77716636 0.06439879 0.67604007 -6.09206824e-03
88 1 3.89019501 0.06766543 0.72931718 -6.09206825e-03
89 1 4.00315698 0.06987946 0.78321995 -6.10477040e-03
90 1 4.11535617 0.07401933 0.83832563 -6.10144793e-03
91 1 4.22646568 0.07726366 0.89426787 -6.09206826e-03
92 1 4.33822437 0.08034814 0.95089032 -6.08473760e-03
93 1 4.44842100 0.08354853 1.00812629 -6.07718969e-03
94 1 4.55835664 0.08742808 1.06670194 -6.08430762e-03
95 1 4.66795332 0.09133102 1.12553790 -6.08084602e-03
96 1 4.77763764 0.09475917 1.18489915 -6.08857506e-03
97 1 4.88669693 0.09910974 1.24557001 -6.09439460e-03
98 1 4.99530394 0.10231611 1.30674586 -6.09360296e-03
99 1 5.10294656 0.10620416 1.36920349 -6.10212083e-03
100 1 5.21073190 0.10969828 1.43166539 -6.09455787e-03
101 1 5.31750110 0.11431623 1.49446350 -6.08457013e-03
102 1 5.42403381 0.11806291 1.55798629 -6.08334006e-03
103 1 5.53066310 0.12193202 1.62283838 -6.09025173e-03
104 1 5.63620636 0.12594455 1.68744878 -6.09206826e-03
105 1 5.74168803 0.13012740 1.75260226 -6.09206826e-03
106 1 5.84661757 0.13479746 1.81842898 -6.08838437e-03
107 1 5.95113491 0.13892641 1.88456898 -6.09329454e-03
108 1 6.05606578 0.14286945 1.95127006 -6.09400483e-03
109 1 6.16030238 0.14746743 2.01833685 -6.08872179e-03
110 1 6.26405588 0.15209865 2.08638762 -6.08812243e-03
111 1 6.36711141 0.15648726 2.15433825 -6.09206826e-03
112 1 6.47042342 0.16091533 2.22236222 -6.09206826e-03
113 1 6.57307969 0.16539873 2.29078522 -6.09206826e-03
114 1 6.67519216 0.17013259 2.35996414 -6.06302327e-03
115 1 6.77748096 0.17430708 2.42929323 -6.06302327e-03
116 1 6.87946006 0.17898206 2.49926704 -5.90236529e-03
117 1 6.98099109 0.18383927 2.56938368 -5.81608564e-03
118 1 7.08242347 0.18848306 2.63960413 -6.10035823e-03
119 1 7.18362906 0.19316905 2.71018196 -5.08741334e-03
120 1 7.28458959 0.19795311 2.78086621 -6.87719096e-03
121 1 7.38520540 0.20296715 2.85170844 -5.18694999e-03
122 1 7.48611338 0.20759507 2.92283497 -5.00655937e-03
123 1 7.58635677 0.21252734 2.99431855 -7.17602109e-03
124 1 7.68647556 0.21773843 3.06597363 -5.64123658e-03
125 1 7.78680848 0.22290837 3.13767219 -5.91249038e-03
126 1 7.88655217 0.22790797 3.20948135 -5.77202514e-03
127 1 7.98627079 0.23301937 3.28144244 -5.95689302e-03
128 1 8.08594551 0.23832776 3.35367167 -6.09206826e-03
129 1 8.18544625 0.24335479 3.42602996 -6.09206826e-03
130 1 8.28467955 0.24856401 3.49849886 -6.09206826e-03
131 1 8.38385431 0.25386023 3.57103744 -6.00199927e-03
132 1 8.48292041 0.25941300 3.64376299 -6.06987486e-03
133 1 8.58184784 0.26481212 3.71659913 -5.02835518e-03
134 1 8.68071463 0.27017092 3.78945919 -6.79157831e-03
135 1 8.77938890 0.27577864 3.86237336 -4.92113473e-03
136 1 8.87815304 0.28114282 3.93547343 -5.56259368e-03
137 1 8.97667748 0.28659479 4.00868538 -5.94323360e-03
138 1 9.07510438 0.29218634 4.08201302 -5.00637084e-03
139 1 9.17343069 0.29772776 4.15522738 -6.75640181e-03
140 1 9.27189138 0.30335479 4.22839905 -4.91035923e-03
141 1 9.37013392 0.30902999 4.30173861 -5.75765677e-03
142 1 9.46832749 0.31474361 4.37511751 -6.37465021e-03
143 1 9.56648676 0.32051118 4.44847877 -6.33172667e-03
144 1 9.66461688 0.32624213 4.52179116 -5.77695765e-03
145 1 9.76274259 0.33214852 4.59513175 -5.75602868e-03
146 1 9.86083798 0.33802169 4.66850639 -5.94989338e-03
147 1 9.95890201 0.34396308 4.74185901 -6.09206826e-03
148 1 10.05697626 0.34991872 4.81518054 -6.09206826e-03
149 1 10.15502696 0.35590984 4.88848871 -6.49862787e-03
150 1 10.25306770 0.36197466 4.96173005 -6.47806478e-03
151 1 10.35107667 0.36812694 5.03498313 -5.98398651e-03
152 1 10.44910050 0.37422928 5.10816544 -5.97118729e-03
153 1 10.54721375 0.38044489 5.18131707 -6.32827249e-03
154 1 10.64528824 0.38669642 5.25442950 -6.38296841e-03
155 1 10.74332871 0.39284657 5.32750239 -6.09206826e-03
156 1 10.84141601 0.39920718 5.40043085 -5.92176613e-03
157 1 10.93952773 0.40546183 5.47334282 -5.84196899e-03
158 1 11.03771057 0.41186788 5.54620958 -5.89327746e-03
159 1 11.13583857 0.41825864 5.61892698 -4.96011300e-03
160 1 11.23403430 0.42467631 5.69169010 -6.65158567e-03
161 1 11.33233931 0.43121013 5.76428995 -4.90989307e-03
162 1 11.43057385 0.43777460 5.83680936 -5.52395043e-03
163 1 11.52897058 0.44421665 5.90917488 -5.87068470e-03
164 1 11.62731592 0.45083859 5.98150126 -4.88602194e-03
165 1 11.72581912 0.45746615 6.05371975 -6.40279006e-03
166 1 11.82426451 0.46417762 6.12587460 -5.12407601e-03
167 1 11.92283893 0.47098885 6.19785559 -4.88216806e-03
168 1 12.02146869 0.47774821 6.26984601 -6.38017819e-03
169 1 12.12016269 0.48444482 6.34162176 -5.11373203e-03
170 1 12.21892356 0.49141909 6.41324388 -4.85398664e-03
171 1 12.31774903 0.49830275 6.48479511 -6.35577596e-03
172 1 12.41677545 0.50518613 6.55612202 -5.10698016e-03
173 1 12.51571451 0.51229340 6.62739547 -4.85870271e-03
174 1 12.61489609 0.51929558 6.69845919 -6.37702085e-03
175 1 12.71400922 0.52645567 6.76953520 -5.10092274e-03
176 1 12.81325480 0.53349712 6.84042878 -4.84968636e-03
177 1 12.91263779 0.54053463 6.91118106 -6.37599125e-03
178 1 13.01193983 0.54772217 6.98174178 -4.87710407e-03
179 1 13.11139785 0.55490273 7.05206712 -5.56677439e-03
180 1 13.21091190 0.56231385 7.12237306 -5.93477518e-03
181 1 13.31058237 0.56943523 7.19247581 -6.09206826e-03
182 1 13.41032185 0.57685441 7.26242055 -6.09206826e-03
183 1 13.51020984 0.58410681 7.33222892 -5.98211588e-03
184 1 13.61021477 0.59152781 7.40187305 -5.88223740e-03
185 1 13.71032275 0.59892746 7.47127360 -5.93479953e-03
186 1 13.81051451 0.60676282 7.54043382 -4.77734034e-03
187 1 13.91088055 0.61424060 7.60960824 -6.31776323e-03
188 1 14.01126072 0.62171173 7.67855475 -4.85845554e-03
189 1 14.11170497 0.62923106 7.74717496 -5.48045656e-03
190 1 14.21229139 0.63696279 7.81573398 -5.74774533e-03
191 1 14.31313757 0.64475764 7.88413975 -5.91938606e-03
192 1 14.41395211 0.65259307 7.95213903 -4.72601755e-03
193 1 14.51487497 0.66021436 8.02010528 -6.44309587e-03
194 1 14.61610302 0.66805219 8.08801625 -5.21392668e-03
195 1 14.71723801 0.67592810 8.15580249 -4.32492230e-03
196 1 14.81845384 0.68375769 8.22329773 -6.11554878e-03
197 1 14.91994177 0.69167013 8.29055579 -5.20526136e-03
198 1 15.02129577 0.69956405 8.35753864 -4.31230685e-03
199 1 15.12294172 0.70747983 8.42464710 -6.11716232e-03
200 1 15.22482550 0.71530310 8.49133388 -5.69773107e-03
201 1 15.32660033 0.72356387 8.55788734 -5.99314584e-03
202 1 15.42850918 0.73150426 8.62415442 -4.76350900e-03
203 1 15.53071717 0.73979323 8.69013510 -5.21120302e-03
204 1 15.63281674 0.74792793 8.75612402 -6.01204532e-03
205 1 15.73522187 0.75613928 8.82199425 -5.73233737e-03
206 1 15.83759367 0.76446102 8.88751266 -5.81943467e-03
207 1 15.94028546 0.77263947 8.95293890 -6.32655047e-03
208 1 16.04279360 0.78097845 9.01796137 -5.03614005e-03
209 1 16.14554284 0.78926772 9.08314333 -4.70280803e-03
210 1 16.24856739 0.79759510 9.14793260 -8.65683464e-03
211 1 16.35149489 0.80583956 9.21257870 -5.94692004e-03
212 1 16.45484845 0.81435169 9.27686429 -5.65885778e-03
213 1 16.55788817 0.82277477 9.34116486 -5.99277035e-03
214 1 16.66136492 0.83142648 9.40509552 -6.04066598e-03
215 1 16.76494476 0.84003802 9.46899821 -6.09206826e-03
216 1 16.86847394 0.84825143 9.53239528 -6.09206826e-03
217 1 16.97230725 0.85681227 9.59594238 -6.09206826e-03
218 1 17.07601591 0.86559246 9.65926392 -5.94140402e-03
219 1 17.17996160 0.87430475 9.72240120 -6.09135703e-03
220 1 17.28402839 0.88287728 9.78532645 -6.09135703e-03
221 1 17.38806548 0.89149107 9.84804079 -6.09206826e-03
222 1 17.49231065 0.90022673 9.91058934 -6.22362401e-03
223 1 17.59682585 0.90878194 9.97297234 -6.30618064e-03
224 1 17.70121274 0.91767729 10.03515954 -6.16079228e-03
225 1 17.80572381 0.92653759 10.09726406 -6.90076158e-03
226 1 17.91043044 0.93529433 10.15918997 -7.19612184e-03
227 1 18.01510233 0.94407715 10.22091837 -6.17999120e-03
228 1 18.11994807 0.95279610 10.28242737 -5.85545161e-03
229 1 18.22489382 0.96168082 10.34383431 -6.04373412e-03
230 1 18.32990924 0.97039989 10.40490556 -6.05837687e-03
231 1 18.43499676 0.97946079 10.46583746 -6.22625934e-03
232 1 18.54031319 0.98848745 10.52669285 -6.96326852e-03
233 1 18.64552915 0.99742452 10.58738281 -6.60839364e-03
234 1 18.75108540 1.00633342 10.64780377 -6.08325267e-03
235 1 18.85675405 1.01540447 10.70800745 -5.98999100e-03
236 1 18.96236977 1.02434016 10.76815104 -6.02220795e-03
237 1 19.06811334 1.03355710 10.82807875 -5.94934321e-03
238 1 19.17396925 1.04267415 10.88789112 -6.23085673e-03
239 1 19.27998101 1.05174356 10.94766514 -5.91383044e-03
240 1 19.38590295 1.06077638 11.00714830 -5.82022831e-03
241 1 19.49199782 1.06999337 11.06661644 -6.06616825e-03
242 1 19.59813398 1.07928863 11.12576413 -6.09206826e-03
243 1 19.70449356 1.08841243 11.18492166 -6.22108889e-03
244 1 19.81083281 1.09735244 11.24396397 -6.93510095e-03
245 1 19.91733431 1.10655598 11.30278553 -6.55067958e-03
246 1 20.02370619 1.11586273 11.36155247 -5.44215936e-03
247 1 20.13036841 1.12504113 11.42023404 -5.52453627e-03
248 1 20.23696818 1.13414743 11.47871532 -6.11677386e-03
249 1 20.34376797 1.14346673 11.53716099 -5.40422112e-03
250 1 20.45050421 1.15286367 11.59540934 -5.51625079e-03
251 1 20.55733342 1.16216673 11.65354039 -6.10817079e-03
252 1 20.66426078 1.17150024 11.71158647 -5.39058303e-03
253 1 20.77124442 1.18077695 11.76954753 -5.51111698e-03
254 1 20.87820990 1.19018286 11.82744181 -6.09959331e-03
255 1 20.98531701 1.19956224 11.88528522 -5.37708140e-03
256 1 21.09246384 1.20873982 11.94297719 -5.50601994e-03
257 1 21.19962806 1.21812345 12.00070448 -6.09132348e-03
258 1 21.30685921 1.22755261 12.05830352 -5.36406280e-03
259 1 21.41414147 1.23689641 12.11581544 -5.50114066e-03
260 1 21.52151962 1.24632120 12.17331589 -6.07613573e-03
261 1 21.62887481 1.25569810 12.23076742 -5.86576563e-03
262 1 21.73628909 1.26517225 12.28816365 -5.87763703e-03
263 1 21.84368491 1.27458421 12.34553324 -5.79509293e-03
264 1 21.95116079 1.28400908 12.40287919 -6.45795830e-03
265 1 22.05861435 1.29342426 12.46020595 -6.36067877e-03
266 1 22.16609872 1.30283180 12.51753761 -5.01672083e-03
267 1 0.12017602 -0.00449312 0.24252963 4.80862070e-03
268 1 0.24017863 -0.00835883 0.24297824 5.62714142e-03
269 1 0.36005927 -0.00823021 0.24505614 6.00619986e-03
270 1 0.47929880 -0.00836961 0.25252406 6.09052560e-03
271 1 0.59648163 -0.01054944 0.25985203 6.09206826e-03
272 1 0.71605793 -0.01127889 0.26875931 5.94781856e-03
273 1 0.83481630 -0.01091611 0.28223519 5.82025544e-03
274 1 0.95162332 -0.00761408 0.29570084 5.95871849e-03
275 1 1.06841752 -0.00633124 0.31247519 6.09232315e-03
276 1 1.18599121 -0.00580234 0.33288515 6.09205550e-03
277 1 1.30311107 -0.00356902 0.35275098 6.08598370e-03
278 1 1.42106396 -0.00329577 0.37429578 6.07933546e-03
279 1 1.53831806 -0.00255285 0.39989802 6.08488133e-03
280 1 1.65333847 -0.00100140 0.42581124 6.08161608e-03
281 1 1.76972141 -0.00042165 0.45480382 6.08881076e-03
282 1 1.88613713 0.00058436 0.48566395 6.09207793e-03
283 1 1.99925281 0.00298496 0.51647584 6.09206431e-03
284 1 2.11506539 0.00630455 0.55012546 6.09206920e-03
285 1 2.22939432 0.00757733 0.58649491 6.09206749e-03
286 1 2.34377579 0.00969172 0.62405097 6.09206826e-03
287 1 2.45788788 0.01210981 0.66182520 6.09206901e-03
288 1 2.57152000 0.01361345 0.70302613 6.08547783e-03
289 1 2.68416537 0.01623930 0.74344498 6.07797420e-03
290 1 2.79638141 0.01888197 0.78618622 6.08460882e-03
291 1 2.90873429 0.02210818 0.82993483 6.08123045e-03
292 1 3.02058501 0.02469627 0.87587083 6.08867780e-03
293 1 3.13109956 0.02691879 0.92143864 6.09206866e-03
294 1 3.24213885 0.02854720 0.96859019 6.09206839e-03
295 1 3.35226937 0.03212688 1.01744608 6.09206833e-03
296 1 3.46246136 0.03460876 1.06729265 6.09206826e-03
297 1 3.57252594 0.03710859 1.11837875 6.09206824e-03
298 1 3.68137894 0.03958654 1.16963511 6.09206825e-03
299 1 3.79027862 0.04263546 1.22248917 6.10477040e-03
300 1 3.89829206 0.04607524 1.27554858 6.10144793e-03
301 1 4.00699039 0.04929791 1.33005269 6.09206826e-03
302 1 4.11509204 0.05242669 1.38524443 6.08473760e-03
303 1 4.22320414 0.05494915 1.44035575 6.07718969e-03
304 1 4.33085414 0.05732606 1.49694767 6.08430762e-03
305 1 4.43719011 0.06193101 1.55469055 6.08084602e-03
306 1 4.54353000 0.06492196 1.61274435 6.08857506e-03
307 1 4.64946536 0.06768246 1.67170156 6.09439460e-03
308 1 4.75509978 0.07081285 1.73150787 6.09360296e-03
309 1 4.86019061 0.07526480 1.79164004 6.10212083e-03
310 1 4.96477946 0.07853549 1.85249982 6.09455787e-03
311 1 5.06954464 0.08205876 1.91425170 6.08457013e-03
312 1 5.17406204 0.08589267 1.97668159 6.08334006e-03
313 1 5.27789605 0.08946574 2.03933411 6.09025173e-03
314 1 5.38165071 0.09284627 2.10276168 6.09206826e-03
315 1 5.48542461 0.09650835 2.16703472 6.09206826e-03
316 1 5.58842633 0.10043774 2.23133856 6.08838437e-03
317 1 5.69107456 0.10462899 2.29665087 6.09329454e-03
318 1 5.79332914 0.10771736 2.36216313 6.09400483e-03
319 1 5.89580390 0.11178540 2.42815782 6.08872179e-03
320 1 5.99804573 0.11590509 2.49462074 6.08812243e-03
321 1 6.09992754 0.12034161 2.56103476 6.09206826e-03
322 1 6.20138746 0.12426024 2.62853707 6.09206826e-03
323 1 6.30263202 0.12881642 2.69660946 6.09206826e-03
324 1 6.40355241 0.13289127 2.76459926 6.06302327e-03
325 1 6.50427489 0.13733757 2.83317634 6.06302327e-03
326 1 6.60482264 0.14165282 2.90199482 5.90236529e-03
327 1 6.70530601 0.14617246 2.97145662 5.81608564e-03
328 1 6.80570018 0.15089958 3.04108499 6.10035823e-03
329 1 6.90571187 0.15506831 3.11082918 5.08741347e-03
330 1 7.00617364 0.15947716 3.18069288 6.88423117e-03
331 1 7.10584018 0.16412280 3.25116851 4.95164977e-03
332 1 7.20540842 0.16873627 3.32142582 5.63292633e-03
333 1 7.30500113 0.17330621 3.39225417 5.95654755e-03
334 1 7.40440639 0.17793960 3.46324991 6.00432988e-03
335 1 7.50378218 0.18284098 3.53448871 6.08757506e-03
336 1 7.60290464 0.18756303 3.60587193 5.05700823e-03
337 1 7.70212678 0.19229932 3.67735954 6.83715280e-03
338 1 7.80112676 0.19728065 3.74896437 4.93632937e-03
339 1 7.89996367 0.20214874 3.82099642 5.62467055e-03
340 1 7.99870308 0.20700452 3.89298193 5.95386311e-03
341 1 8.09723836 0.21205145 3.96525540 6.00199927e-03
342 1 8.19585586 0.21714256 4.03766526 6.06987486e-03
343 1 8.29433008 0.22219664 4.11007531 5.01509653e-03
344 1 8.39287724 0.22736445 4.18264253 6.78511241e-03
345 1 8.49133006 0.23252608 4.25532379 4.92113473e-03
346 1 8.58964698 0.23777378 4.32821556 5.61645056e-03
347 1 8.68782540 0.24317985 4.40120847 5.95118153e-03
348 1 8.78613016 0.24844129 4.47414230 6.09206826e-03
349 1 8.88423175 0.25384549 4.54735877 6.09206826e-03
350 1 8.98238355 0.25928092 4.62042962 6.09206826e-03
351 1 9.08052147 0.26475163 4.69366965 6.50085567e-03
352 1 9.17857220 0.27022537 4.76691114 6.38496347e-03
353 1 9.27665056 0.27576805 4.84021460 5.77251663e-03
354 1 9.37474874 0.28144017 4.91353182 5.73476969e-03
355 1 9.47287254 0.28712046 4.98683161 5.94888879e-03
356 1 9.57095745 0.29286786 5.06014886 6.09206826e-03
357 1 9.66909707 0.29866598 5.13349305 6.09206826e-03
358 1 9.76718987 0.30445086 5.20688003 6.09206826e-03
359 1 9.86528462 0.31032706 5.28025197 6.09206826e-03
360 1 9.96342559 0.31621446 5.35358868 4.98457375e-03
361 1 10.06160709 0.32211004 5.42688252 6.69756871e-03
362 1 10.15977986 0.32806643 5.50019384 5.15375987e-03
363 1 10.25800255 0.33409834 5.57353170 4.95985007e-03
364 1 10.35627622 0.34018371 5.64676132 6.48212442e-03
365 1 10.45450632 0.34639172 5.71992503 5.14927068e-03
366 1 10.55280349 0.35251081 5.79312895 4.95341033e-03
367 1 10.65120863 0.35887025 5.86621451 6.46347279e-03
368 1 10.74968910 0.36504517 5.93932502 5.14043101e-03
369 1 10.84819687 0.37145776 6.01234017 4.91020010e-03
370 1 10.94666934 0.37773482 6.08520121 6.45556760e-03
371 1 11.04519320 0.38418133 6.15803810 4.90989307e-03
372 1 11.14383450 0.39069419 6.23082699 5.52395043e-03
373 1 11.24253461 0.39714815 6.30351505 5.87068470e-03
374 1 11.34140382 0.40367733 6.37609770 4.87920209e-03
375 1 11.44024033 0.41030942 6.44858638 6.41661913e-03
376 1 11.53916718 0.41695597 6.52103707 4.89988333e-03
377 1 11.63812376 0.42354680 6.59341406 5.51681014e-03
378 1 11.73716060 0.43024008 6.66562305 5.85936171e-03
379 1 11.83639412 0.43709028 6.73771847 4.85938456e-03
380 1 11.93567873 0.44385809 6.80981406 6.38254444e-03
381 1 12.03487171 0.45088802 6.88171192 4.88995824e-03
382 1 12.13427583 0.45780038 6.95339954 5.57476230e-03
383 1 12.23381600 0.46458195 7.02502206 5.93743790e-03
384 1 12.33341375 0.47187425 7.09659128 5.98766457e-03
385 1 12.43305017 0.47890179 7.16805668 5.96043235e-03
386 1 12.53289224 0.48584497 7.23923244 4.81637844e-03
387 1 12.63275762 0.49309185 7.31020163 6.34214196e-03
388 1 12.73266183 0.50020357 7.38125902 4.87620659e-03
389 1 12.83273790 0.50740878 7.45216731 5.56677439e-03
390 1 12.93287316 0.51480303 7.52291410 5.93477518e-03
391 1 13.03324945 0.52210047 7.59342688 5.98532808e-03
392 1 13.13365610 0.52937819 7.66382749 5.94249673e-03
393 1 13.23420678 0.53688558 7.73411466 4.79106117e-03
394 1 13.33482613 0.54441795 7.80410224 6.34873408e-03
395 1 13.43570561 0.55160701 7.87405224 5.10720957e-03
396 1 13.53664719 0.55939007 7.94375491 4.79385489e-03
397 1 13.63755630 0.56702968 8.01338957 6.33054845e-03
398 1 13.73857285 0.57479461 8.08261753 5.10009402e-03
399 1 13.83991273 0.58240690 8.15200867 4.78369059e-03
400 1 13.94107769 0.58989634 8.22095709 6.31203828e-03
401 1 14.04245814 0.59772557 8.28987132 5.09300092e-03
402 1 14.14418783 0.60545924 8.35865505 4.74903927e-03
403 1 14.24596525 0.61329645 8.42700021 6.32830758e-03
404 1 14.34750842 0.62107860 8.49535307 5.08343922e-03
405 1 14.44943801 0.62900544 8.56331017 4.32591159e-03
406 1 14.55148459 0.63713782 8.63132123 6.00104739e-03
407 1 14.65359301 0.64484599 8.69903376 5.21119202e-03
408 1 14.75602017 0.65309121 8.76683611 6.09206826e-03
409 1 14.85824915 0.66121304 8.83424963 6.05153388e-03
410 1 14.96084481 0.66917049 8.90154258 5.91774538e-03
411 1 15.06331136 0.67734480 8.96860544 6.22305381e-03
412 1 15.16605410 0.68538305 9.03532168 5.03791106e-03
413 1 15.26896988 0.69368739 9.10192319 4.72607940e-03
414 1 15.37184259 0.70175203 9.16832202 8.71836332e-03
415 1 15.47489387 0.71020342 9.23457425 5.95355142e-03
416 1 15.57805898 0.71838463 9.30070710 5.36960420e-03
417 1 15.68129143 0.72704911 9.36659936 6.03255871e-03
418 1 15.78473335 0.73531824 9.43235074 5.00245570e-03
419 1 15.88845380 0.74379547 9.49797447 4.70280803e-03
420 1 15.99215866 0.75198841 9.56314764 8.65685956e-03
421 1 16.09596706 0.76052238 9.62819841 5.94692135e-03
422 1 16.19970354 0.76912319 9.69318427 5.65886656e-03
423 1 16.30371939 0.77758346 9.75777752 5.98663784e-03
424 1 16.40807581 0.78613736 9.82226278 6.03862808e-03
425 1 16.51232603 0.79480780 9.88656957 6.08821513e-03
426 1 16.61655903 0.80336419 9.95063106 6.17296108e-03
427 1 16.72094331 0.81202158 10.01442894 6.04911048e-03
428 1 16.82552922 0.82048101 10.07823253 6.99423467e-03
429 1 16.93016940 0.82913081 10.14173731 6.49916941e-03
430 1 17.03483862 0.83793962 10.20511696 6.05139015e-03
431 1 17.13988615 0.84660763 10.26817991 6.07023001e-03
432 1 17.24477484 0.85550173 10.33127624 6.06423220e-03
433 1 17.34981204 0.86433154 10.39407915 6.03339671e-03
434 1 17.45482075 0.87327307 10.45676959 6.06123277e-03
435 1 17.56019477 0.88197300 10.51924998 6.05523286e-03
436 1 17.66553719 0.89099526 10.58152797 6.01539697e-03
437 1 17.77089031 0.89969195 10.64358315 6.05223237e-03
438 1 17.87629754 0.90873910 10.70563699 6.04623034e-03
439 1 17.98211345 0.91771900 10.76753363 5.99739088e-03
440 1 18.08772577 0.92668733 10.82903605 6.03386113e-03
441 1 18.19348951 0.93565574 10.89030119 6.06015229e-03
442 1 18.29951077 0.94475155 10.95156819 6.93292310e-03
443 1 18.40569917 0.95367315 11.01260020 6.60839364e-03
444 1 18.51183716 0.96278900 11.07342192 6.08325267e-03
445 1 18.61804600 0.97174278 11.13415031 5.98999100e-03
446 1 18.72428914 0.98078748 11.19458234 6.02220795e-03
447 1 18.83066262 0.98987054 11.25492080 5.94934321e-03
448 1 18.93711422 0.99913943 11.31509778 6.00521256e-03
449 1 19.04359463 1.00826041 11.37500821 5.96042100e-03
450 1 19.15030963 1.01733819 11.43493940 6.01327673e-03
451 1 19.25692442 1.02642677 11.49463375 6.06616825e-03
452 1 19.36368084 1.03566186 11.55420673 6.09206826e-03
453 1 19.47045166 1.04492052 11.61365617 6.22108889e-03
454 1 19.57724949 1.05414103 11.67296035 6.93510095e-03
455 1 19.68418914 1.06333375 11.73210343 6.55067958e-03
456 1 19.79127911 1.07261524 11.79115143 5.44215936e-03
457 1 19.89826261 1.08193901 11.85010316 5.52453627e-03
458 1 20.00534352 1.09110802 11.90885145 6.09206826e-03
459 1 20.11252137 1.10034375 11.96746631 5.52769247e-03
460 1 20.21967652 1.10966403 12.02600694 5.54504444e-03
461 1 20.32693166 1.11891541 12.08431773 6.09206826e-03
462 1 20.43431068 1.12828796 12.14264265 5.52433613e-03
463 1 20.54159417 1.13757902 12.20080682 5.54169116e-03
464 1 20.64901062 1.14677198 12.25889329 6.09959331e-03
465 1 20.75644931 1.15615146 12.31685408 5.37708140e-03
466 1 20.86384882 1.16548903 12.37476450 5.50601994e-03
467 1 20.97130941 1.17480629 12.43256718 6.09132348e-03
468 1 21.07886068 1.18415439 12.49030607 5.36406280e-03
469 1 21.18637428 1.19351397 12.54796662 5.50114066e-03
470 1 21.29393842 1.20283368 12.60560518 6.07613573e-03
471 1 21.40143967 1.21223296 12.66313478 5.86576563e-03
472 1 21.50901172 1.22158738 12.72063656 5.87763704e-03
473 1 21.61659548 1.23095491 12.77810100 5.79509293e-03
474 1 21.72411499 1.24034012 12.83550955 6.45795830e-03
475 1 21.83169051 1.24969589 12.89288375 6.36067877e-03
476 1 21.93923630 1.25908899 12.95022972 5.01672083e-03
477 1 0.12413809 1.20539712 -0.24446691 -5.06599779e-03
478 1 0.24872165 1.20372553 -0.24481712 -5.96099493e-03
479 1 0.37521435 1.20050156 -0.24052340 -6.06828787e-03
480 1 0.50172444 1.20186678 -0.23484310 -6.09081051e-03
481 1 0.62748118 1.20215516 -0.22564088 -6.09597885e-03
482 1 0.75307212 1.20322093 -0.21492305 -6.09677124e-03
483 1 0.88038282 1.20211600 -0.20049487 -6.09261604e-03
484 1 1.00588632 1.20428963 -0.18473549 -6.09210769e-03
485 1 1.13184744 1.20402535 -0.16421764 -6.09159289e-03
486 1 1.25569699 1.20536420 -0.14315786 -6.09258964e-03
487 1 1.38014455 1.20985605 -0.12161125 -6.11404233e-03
488 1 1.50316327 1.21166849 -0.09608724 -6.12924398e-03
489 1 1.62544335 1.21098987 -0.06931716 -6.13810471e-03
490 1 1.74793428 1.21288300 -0.04139546 -6.10740278e-03
491 1 1.87040828 1.21423686 -0.01043354 -6.11299929e-03
492 1 1.99163816 1.21662998 0.02419819 -6.11651709e-03
493 1 2.11267961 1.21764347 0.05692582 -6.10892752e-03
494 1 2.23308346 1.22219116 0.09325793 -6.08383817e-03
495 1 2.35309361 1.22542689 0.13175075 -6.07811671e-03
496 1 2.47108141 1.22706345 0.17219230 -6.12167487e-03
497 1 2.58897260 1.22825935 0.21283088 -6.12891596e-03
498 1 2.70698568 1.23200216 0.25470361 -6.13439434e-03
499 1 2.82430161 1.23557716 0.29967996 -6.11877956e-03
500 1 2.94085078 1.23709096 0.34510314 -6.09486572e-03
501 1 3.05645892 1.24084799 0.39175961 -6.09206826e-03
502 1 3.17254994 1.24367545 0.44003455 -6.09206855e-03
503 1 3.28673427 1.24641737 0.48952014 -6.09206932e-03
504 1 3.39965819 1.24961770 0.53969063 -6.11378764e-03
505 1 3.51441822 1.25456312 0.59149321 -6.10132488e-03
506 1 3.62619041 1.25795529 0.64395672 -6.14015253e-03
507 1 3.73831186 1.26043637 0.69670626 -6.18862768e-03
508 1 3.84908445 1.26442979 0.75159795 -6.20494803e-03
509 1 3.96031109 1.26764519 0.80609119 -6.16689241e-03
510 1 4.07042878 1.27094622 0.86229630 -6.13536340e-03
511 1 4.18072473 1.27426703 0.91869159 -6.09206826e-03
512 1 4.29033447 1.27771119 0.97585674 -6.09528258e-03
513 1 4.39998995 1.28181342 1.03382960 -6.10197805e-03
514 1 4.50928446 1.28523178 1.09293177 -6.09705471e-03
515 1 4.61729969 1.28938836 1.15272618 -6.06436498e-03
516 1 4.72532056 1.29248543 1.21396521 -6.12133674e-03
517 1 4.83232884 1.29674266 1.27477491 -6.20974613e-03
518 1 4.93932313 1.30101126 1.33652877 -6.24802334e-03
519 1 5.04548794 1.30516916 1.39911064 -6.19819175e-03
520 1 5.15174825 1.30838174 1.46248269 -6.15088270e-03
521 1 5.25760703 1.31250421 1.52650180 -6.13301438e-03
522 1 5.36263677 1.31748439 1.59111176 -6.10131989e-03
523 1 5.46772198 1.32147833 1.65643515 -6.05757291e-03
524 1 5.57218096 1.32615540 1.72197179 -6.04491082e-03
525 1 5.67575683 1.32999441 1.78830031 -6.05437557e-03
526 1 5.77975656 1.33486422 1.85487803 -6.06489385e-03
527 1 5.88285381 1.33945482 1.92175800 -6.09206826e-03
528 1 5.98546135 1.34410708 1.98938396 -6.09206826e-03
529 1 6.08783564 1.34814263 2.05748929 -6.09979510e-03
530 1 6.18992152 1.35265279 2.12585047 -6.12512692e-03
531 1 6.29204414 1.35749265 2.19443360 -6.16578501e-03
532 1 6.39370186 1.36166544 2.26362418 -6.26929389e-03
533 1 6.49478013 1.36622601 2.33273755 -6.28695529e-03
534 1 6.59641422 1.37137552 2.40220088 -6.28583704e-03
535 1 6.69735875 1.37583236 2.47203018 -6.23881179e-03
536 1 6.79822600 1.38062198 2.54251703 -6.30184580e-03
537 1 6.89856984 1.38542181 2.61299863 -6.28022129e-03
538 1 6.99873972 1.39030201 2.68381314 -6.24103982e-03
539 1 7.09902436 1.39529674 2.75475140 -6.33470904e-03
540 1 7.19887893 1.39981148 2.82625773 -6.28101331e-03