ITEM: TIMESTEP
0
ITEM: NUMBER OF ATOMS
10710
ITEM: BOX BOUNDS ff ff ff
-2.0 24.558255719452987
-2.010487910654294 3.868845428334017
-2.246335142587008 14.561965401475934
ITEM: ATOMS id type x y z q
1 2 0.00000000 0.00000000 0.24527477 3.35542180e-03
2 2 0.00000000 0.00000000 -0.24472523 -3.35542180e-03
3 2 0.00000000 1.21000000 0.24527477 3.41686920e-03
4 2 0.00000000 1.21000000 -0.24472523 -3.41686920e-03
5 1 22.32068282 0.63275113 12.52071943 3.37776783e-03
6 1 22.55825572 0.66215498 12.09274284 -3.37776783e-03
7 1 22.24481138 1.83903649 12.56196540 3.41686920e-03
8 1 22.48228602 1.86884543 12.13398588 -3.41686920e-03
9 2 0.00000000 0.00000000 -0.12222523 0.00000000e+00
10 2 0.00000000 0.00000000 0.00027477 0.00000000e+00
11 2 0.00000000 0.00000000 0.12277477 0.00000000e+00
12 2 0.00000000 0.12100000 0.24527477 5.18139194e-03
13 2 0.00000000 0.24200000 0.24527477 5.50362000e-03
14 2 0.00000000 0.36300000 0.24527477 5.01501884e-03
15 2 0.00000000 0.48400000 0.24527477 5.50904170e-03
16 2 0.00000000 0.60500000 0.24527477 6.02408537e-03
17 2 0.00000000 0.72600000 0.24527477 6.86123120e-03
18 2 0.00000000 0.84700000 0.24527477 6.83241897e-03
19 2 0.00000000 0.96800000 0.24527477 5.84994208e-03
20 2 0.00000000 1.08900000 0.24527477 4.96878236e-03
21 2 0.00000000 1.21000000 -0.12222523 0.00000000e+00
22 2 0.00000000 1.21000000 0.00027477 0.00000000e+00
23 2 0.00000000 1.21000000 0.12277477 0.00000000e+00
24 2 0.00000000 0.12100000 -0.24472523 -5.18139194e-03
25 2 0.00000000 0.24200000 -0.24472523 -5.50362000e-03
26 2 0.00000000 0.36300000 -0.24472523 -5.01501884e-03
27 2 0.00000000 0.48400000 -0.24472523 -5.50904170e-03
28 2 0.00000000 0.60500000 -0.24472523 -6.02408537e-03
29 2 0.00000000 0.72600000 -0.24472523 -6.86123120e-03
30 2 0.00000000 0.84700000 -0.24472523 -6.83241897e-03
31 2 0.00000000 0.96800000 -0.24472523 -5.84994208e-03
32 2 0.00000000 1.08900000 -0.24472523 -4.96878236e-03
33 1 22.49885327 0.65479863 12.19975204 0.00000000e+00
34 1 22.43945595 0.64744236 12.30673700 0.00000000e+00
35 1 22.38006170 0.64009408 12.41372040 0.00000000e+00
36 1 22.31310778 0.75339268 12.52480624 5.05002864e-03
37 1 22.30554574 0.87402371 12.52889929 5.64089052e-03
38 1 22.29797812 0.99465945 12.53299010 5.44128437e-03
39 1 22.29043037 1.11529010 12.53710096 6.40224548e-03
40 1 22.28281942 1.23590809 12.54120389 6.88148315e-03
41 1 22.27523710 1.35653057 12.54532167 6.11583422e-03
42 1 22.26763350 1.47716095 12.54946582 5.69198232e-03
43 1 22.26000442 1.59779877 12.55363822 6.01735171e-03
44 1 22.25239606 1.71841575 12.55779384 5.43527194e-03
45 1 22.42291180 1.86139243 12.24099094 0.00000000e+00
46 1 22.36353314 1.85394423 12.34796895 0.00000000e+00
47 1 22.30415940 1.84649250 12.45495654 0.00000000e+00
48 1 22.55068018 0.78281104 12.09684486 -5.05002864e-03
49 1 22.54310169 0.90348314 12.10095366 -5.64089052e-03
50 1 22.53552433 1.02414232 12.10501797 -5.44128437e-03
51 1 22.52794546 1.14481595 12.10910688 -6.40224548e-03
52 1 22.52035761 1.26549302 12.11322464 -6.88148315e-03
53 1 22.51275512 1.38617872 12.11739071 -6.11583422e-03
54 1 22.50514349 1.50686472 12.12150680 -5.69198232e-03
55 1 22.49752417 1.62753329 12.12566942 -6.01735171e-03
56 1 22.48992042 1.74818964 12.12983848 -5.43527194e-03
57 1 0.12491128 0.00503751 -0.24633514 -4.80862070e-03
58 1 0.25046502 0.00896009 -0.24454266 -5.62714142e-03
59 1 0.37619556 0.00961825 -0.24179068 -6.00619986e-03
60 1 0.50325417 0.00958403 -0.23736361 -6.09052560e-03
61 1 0.62922732 0.00993123 -0.23069673 -6.09206826e-03
62 1 0.75533522 0.01194120 -0.22223205 -5.94781856e-03
63 1 0.88102348 0.01394991 -0.21210507 -5.82025544e-03
64 1 1.00617331 0.01299805 -0.19687548 -5.95871849e-03
65 1 1.13325103 0.01371705 -0.18198763 -6.09232315e-03
66 1 1.25895241 0.01341062 -0.16594666 -6.09205550e-03
67 1 1.38343023 0.01441986 -0.14714064 -6.08598370e-03
68 1 1.50778919 0.01637203 -0.12447083 -6.07933546e-03
69 1 1.63190034 0.01729086 -0.10344719 -6.08488133e-03
70 1 1.75544115 0.01778502 -0.07913289 -6.08161608e-03
71 1 1.87838791 0.01854868 -0.05347557 -6.08881076e-03
72 1 2.00251029 0.01897965 -0.02544195 -6.09207793e-03
73 1 2.12547579 0.02008865 0.00344043 -6.09206431e-03
74 1 2.24773409 0.02216342 0.03522085 -6.09206920e-03
75 1 2.36961592 0.02289547 0.06755129 -6.09206749e-03
76 1 2.49045347 0.02336474 0.10111731 -6.09206826e-03
77 1 2.61064499 0.02443628 0.13590241 -6.09206901e-03
78 1 2.73126220 0.02415454 0.17182033 -6.08547783e-03
79 1 2.85080521 0.02580557 0.20911192 -6.07797420e-03
80 1 2.96985247 0.02844824 0.24793908 -6.08460882e-03
81 1 3.08870144 0.02890006 0.28763438 -6.08123045e-03
82 1 3.20660201 0.03050230 0.32900076 -6.08867780e-03
83 1 3.32387694 0.03204148 0.37139718 -6.09206866e-03
84 1 3.44124734 0.03354634 0.41522699 -6.09206839e-03
85 1 3.55780934 0.03423548 0.45925516 -6.09206833e-03
86 1 3.67431372 0.03501932 0.50496763 -6.09206826e-03
87 1 3.79061444 0.03741693 0.55164769 -6.09206824e-03
88 1 3.90598585 0.03918327 0.59868030 -6.09206825e-03
89 1 4.02131219 0.03988565 0.64634768 -6.10477040e-03
90 1 4.13603143 0.04230835 0.69518139 -6.10144793e-03
91 1 4.24971456 0.04391038 0.74489826 -6.09206826e-03
92 1 4.36406796 0.04533972 0.79517088 -6.08473760e-03
93 1 4.47700510 0.04691195 0.84615093 -6.07718969e-03
94 1 4.58981674 0.04903570 0.89839025 -6.08430762e-03
95 1 4.70229086 0.05119209 0.95091093 -6.08084602e-03
96 1 4.81485001 0.05280581 1.00392162 -6.08857506e-03
97 1 4.92692044 0.05535076 1.05825023 -6.09439460e-03
98 1 5.03855404 0.05666676 1.11313381 -6.09360296e-03
99 1 5.14932068 0.05870953 1.16925799 -6.10212083e-03
100 1 5.26027435 0.06032887 1.22542338 -6.09455787e-03
101 1 5.37031040 0.06302015 1.28195947 -6.08457013e-03
102 1 5.48009768 0.06483037 1.33930396 -6.08334006e-03
103 1 5.59010116 0.06669728 1.39792464 -6.09025173e-03
104 1 5.69897063 0.06873868 1.45639856 -6.09206826e-03
105 1 5.80785089 0.07085608 1.51540504 -6.09206826e-03
106 1 5.91626684 0.07348106 1.57510729 -6.08838437e-03
107 1 6.02423566 0.07559195 1.63516480 -6.09329454e-03
108 1 6.13261774 0.07733121 1.69577834 -6.09400483e-03
109 1 6.24030479 0.07982268 1.75687357 -6.08872179e-03
110 1 6.34764554 0.08232539 1.81894322 -6.08812243e-03
111 1 6.45425428 0.08458914 1.88098852 -6.09206826e-03
112 1 6.56114578 0.08680871 1.94320003 -6.09206826e-03
113 1 6.66738674 0.08906088 2.00577655 -6.09206826e-03
114 1 6.77309862 0.09157749 2.06920357 -6.06302327e-03
115 1 6.87898183 0.09343702 2.13286860 -6.06302327e-03
116 1 6.98459989 0.09582847 2.19715977 -5.90236529e-03
117 1 7.08972727 0.09833549 2.26167981 -5.81608564e-03
118 1 7.19472874 0.10071420 2.32631765 -6.10035823e-03
119 1 7.29957503 0.10308340 2.39138620 -5.08741334e-03
120 1 7.40406927 0.10547158 2.45663582 -6.87719096e-03
121 1 7.50824498 0.10809117 2.52211225 -5.18694999e-03
122 1 7.61275850 0.11027281 2.58787068 -5.00655937e-03
123 1 7.71654498 0.11282856 2.65403048 -7.17602109e-03
124 1 7.82025959 0.11561396 2.72040546 -5.64123658e-03
125 1 7.92413412 0.11826426 2.78699445 -5.91249038e-03
126 1 8.02739280 0.12072440 2.85367289 -5.77202514e-03
127 1 8.13060354 0.12332978 2.92057066 -5.95689302e-03
128 1 8.23382703 0.12609653 2.98778219 -6.09206826e-03
129 1 8.33677819 0.12849544 3.05522914 -6.09206826e-03
130 1 8.43947873 0.13114641 3.12277961 -6.09206826e-03
131 1 8.54207524 0.13387205 3.19045719 -6.00199927e-03
132 1 8.64462783 0.13687261 3.25839007 -6.06987486e-03
133 1 8.74699936 0.13962411 3.32650459 -5.02835518e-03
134 1 8.84920528 0.14229907 3.39472341 -6.79157831e-03
135 1 8.95113614 0.14524055 3.46313551 -4.92113473e-03
136 1 9.05321060 0.14785263 3.53170796 -5.56259368e-03
137 1 9.15506295 0.15052408 3.60050146 -5.94323360e-03
138 1 9.25674437 0.15344890 3.66949194 -5.00637084e-03
139 1 9.35824932 0.15617609 3.73833452 -6.75640181e-03
140 1 9.45978845 0.15892158 3.80728793 -4.91035923e-03
141 1 9.56113088 0.16177437 3.87644269 -5.75765677e-03
142 1 9.66246682 0.16466627 3.94563770 -6.37465021e-03
143 1 9.76372709 0.16764391 4.01488430 -6.33172667e-03
144 1 9.86488131 0.17055606 4.08417735 -5.77695765e-03
145 1 9.96604651 0.17360977 4.15355815 -5.75602868e-03
146 1 10.06711816 0.17653917 4.22298225 -5.94989338e-03
147 1 10.16804683 0.17949640 4.29252867 -6.09206826e-03
148 1 10.26898540 0.18255792 4.36211669 -6.09206826e-03
149 1 10.36986197 0.18550963 4.43176149 -6.49862787e-03
150 1 10.47069574 0.18859076 4.50143741 -6.47806478e-03
151 1 10.57148314 0.19162458 4.57112183 -5.98398651e-03
152 1 10.67223701 0.19472707 4.64085467 -5.97118729e-03
153 1 10.77298454 0.19780172 4.71056950 -6.32827249e-03
154 1 10.87368951 0.20094899 4.78028774 -6.38296841e-03
155 1 10.97434611 0.20409068 4.85003927 -6.09206826e-03
156 1 11.07497281 0.20722784 4.91977348 -5.92176613e-03
157 1 11.17558384 0.21037509 4.98949715 -5.84196899e-03
158 1 11.27618475 0.21357775 5.05921276 -5.89327746e-03
159 1 11.37676094 0.21679462 5.12893447 -4.96011300e-03
160 1 11.47733144 0.22000793 5.19867227 -6.65158567e-03
161 1 11.57793399 0.22328052 5.26836316 -4.90989307e-03
162 1 11.67852184 0.22656606 5.33801507 -5.52395043e-03
163 1 11.77913573 0.22980148 5.40760846 -5.87068470e-03
164 1 11.87970217 0.23310848 5.47719449 -4.88602194e-03
165 1 11.98033407 0.23642493 5.54673712 -6.40279006e-03
166 1 12.08092453 0.23977988 5.61625821 -5.12407601e-03
167 1 12.18156935 0.24318466 5.68569741 -4.88216806e-03
168 1 12.28222843 0.24655489 5.75515703 -6.38017819e-03
169 1 12.38290343 0.24991123 5.82450682 -5.11373203e-03
170 1 12.48361101 0.25339883 5.89377383 -4.85398664e-03
171 1 12.58434469 0.25683030 5.96301635 -6.35577596e-03
172 1 12.68516922 0.26026962 6.03213581 -5.10698016e-03
173 1 12.78595835 0.26381696 6.10122482 -4.85870271e-03
174 1 12.88685545 0.26730727 6.17021156 -6.37702085e-03
175 1 12.98772061 0.27088051 6.23919864 -5.10092274e-03
176 1 13.08864747 0.27439427 6.30808416 -4.84968636e-03
177 1 13.18963793 0.27789579 6.37689437 -6.37599125e-03
178 1 13.29058630 0.28148520 6.44559184 -4.87710407e-03
179 1 13.39161724 0.28506447 6.51414951 -5.56677439e-03
180 1 13.49268017 0.28877109 6.58270138 -5.93477518e-03
181 1 13.59382117 0.29230221 6.65112985 -6.09206826e-03
182 1 13.69500760 0.29600916 6.71945834 -6.09206826e-03
183 1 13.79627352 0.29960809 6.78770394 -5.98211588e-03
184 1 13.89761006 0.30330347 6.85584845 -5.88223740e-03
185 1 13.99900797 0.30698225 6.92384317 -5.93479953e-03
186 1 14.10046450 0.31092546 6.99168290 -4.77734034e-03
187 1 14.20201687 0.31464205 7.05953243 -6.31776323e-03
188 1 14.30357472 0.31835018 7.12723370 -4.85845554e-03
189 1 14.40517004 0.32208460 7.19472725 -5.48045656e-03
190 1 14.50685743 0.32594807 7.26218126 -5.74774533e-03
191 1 14.60871216 0.32984034 7.32953325 -5.91938606e-03
192 1 14.71054497 0.33375627 7.39662172 -4.72601755e-03
193 1 14.81243898 0.33752813 7.46368753 -6.44309587e-03
194 1 14.91453789 0.34143244 7.53071172 -5.21392668e-03
195 1 15.01657509 0.34536041 7.59765303 -4.32492230e-03
196 1 15.11866148 0.34925198 7.66440212 -6.11554878e-03
197 1 15.22092841 0.35318747 7.73099267 -5.20526136e-03
198 1 15.32310356 0.35711132 7.79739787 -4.31230685e-03
199 1 15.42547372 0.36103870 7.86388399 -6.11716232e-03
200 1 15.52799887 0.36489440 7.93008696 -5.69773107e-03
201 1 15.63046389 0.36904402 7.99619502 -5.99314584e-03
202 1 15.73300773 0.37297008 8.06210886 -4.76350900e-03
203 1 15.83576491 0.37712108 8.12782363 -5.21120302e-03
204 1 15.93844272 0.38116850 8.19354529 -6.01204532e-03
205 1 16.04133101 0.38525708 8.25918372 -5.73233737e-03
206 1 16.14419980 0.38941815 8.32457811 -5.81943467e-03
207 1 16.24728389 0.39346947 8.38990655 -6.32655047e-03
208 1 16.35024474 0.39763383 8.45495426 -5.03614005e-03
209 1 16.45337197 0.40175663 8.52011199 -4.70280803e-03
210 1 16.55669285 0.40589142 8.58499647 -8.65683464e-03
211 1 16.65994179 0.40997029 8.64978012 -5.94692004e-03
212 1 16.76349813 0.41421895 8.71430744 -5.65885778e-03
213 1 16.86683085 0.41841449 8.77884444 -5.99277035e-03
214 1 16.97047951 0.42275296 8.84311899 -6.04066598e-03
215 1 17.07419924 0.42705839 8.90737575 -6.09206826e-03
216 1 17.17787103 0.43107839 8.97127683 -6.09206826e-03
217 1 17.28177017 0.43533441 9.03528017 -6.09206826e-03
218 1 17.38558785 0.43974805 9.09912137 -5.94140402e-03
219 1 17.48957299 0.44410405 9.16283023 -6.09135703e-03
220 1 17.59363962 0.44835418 9.22639158 -6.09135703e-03
221 1 17.69768895 0.45263467 9.28979811 -6.09206826e-03
222 1 17.80189167 0.45699076 9.35308849 -6.22362401e-03
223 1 17.90628153 0.46120515 9.41626128 -6.30618064e-03
224 1 18.01059161 0.46566613 9.47929367 -6.16079228e-03
225 1 18.11499068 0.47009782 9.54226473 -6.90076158e-03
226 1 18.21952738 0.47444661 9.60510862 -7.19612184e-03
227 1 18.32404110 0.47881379 9.66780796 -6.17999120e-03
228 1 18.42867841 0.48312626 9.73035279 -5.85545161e-03
229 1 18.53339621 0.48755334 9.79282005 -6.04373412e-03
230 1 18.63816153 0.49185747 9.85504701 -6.05837687e-03
231 1 18.74299084 0.49640239 9.91717113 -6.22625934e-03
232 1 18.84798502 0.50091300 9.97924402 -6.96326852e-03
233 1 18.95290475 0.50536108 10.04119703 -6.60839364e-03
234 1 19.05807259 0.50977551 10.10295684 -6.08325267e-03
235 1 19.16332858 0.51430088 10.16455931 -5.98999100e-03
236 1 19.26854290 0.51872947 10.22611731 -6.02220795e-03
237 1 19.37386235 0.52335612 10.28751681 -5.94934321e-03
238 1 19.47925964 0.52790577 10.34883565 -6.23085673e-03
239 1 19.58476951 0.53241468 10.41012739 -5.91383044e-03
240 1 19.69021554 0.53689785 10.47120705 -5.82022831e-03
241 1 19.79579547 0.54150816 10.53227659 -6.06616825e-03
242 1 19.90141094 0.54617322 10.59311296 -6.09206826e-03
243 1 20.00718384 0.55070424 10.65395860 -6.22108889e-03
244 1 20.11293620 0.55510271 10.71472210 -6.93510095e-03
245 1 20.21881759 0.55968287 10.77532569 -6.55067958e-03
246 1 20.32460889 0.56434339 10.83588735 -5.44215936e-03
247 1 20.43060997 0.56889933 10.89639090 -5.52453627e-03
248 1 20.53656414 0.57340429 10.95674679 -6.11677386e-03
249 1 20.64267270 0.57805692 11.01707886 -5.40422112e-03
250 1 20.74873929 0.58276610 11.07726675 -5.51625079e-03
251 1 20.85487219 0.58740277 11.13737038 -6.10817079e-03
252 1 20.96107932 0.59205777 11.19741305 -5.39058303e-03
253 1 21.06732620 0.59666982 11.25739536 -5.51111698e-03
254 1 21.17356578 0.60137442 11.31732745 -6.09959331e-03
255 1 21.27990724 0.60605444 11.37722577 -5.37708140e-03
256 1 21.38627289 0.61058582 11.43701581 -5.50601994e-03
257 1 21.49265793 0.61526569 11.49683042 -6.09132348e-03
258 1 21.59909505 0.61997634 11.55655294 -5.36406280e-03
259 1 21.70556759 0.62462179 11.61621330 -5.50114066e-03
260 1 21.81211286 0.62932222 11.67586657 -6.07613573e-03
261 1 21.91864006 0.63398874 11.73548441 -5.86576563e-03
262 1 22.02521425 0.63872351 11.79506224 -5.87763703e-03
263 1 22.13177322 0.64341340 11.85462127 -5.79509293e-03
264 1 22.23839041 0.64810948 11.91416439 -6.45795830e-03
265 1 22.34499161 0.65279887 11.97369327 -6.36067877e-03
266 1 22.45161439 0.65748166 12.03322666 -5.01672083e-03
267 1 0.12041068 -0.00390599 0.24294009 4.80862070e-03
268 1 0.24058280 -0.00733105 0.24329056 5.62714142e-03
269 1 0.36062414 -0.00731985 0.24499753 6.00619986e-03
270 1 0.48012527 -0.00758556 0.25117019 6.09052560e-03
271 1 0.59785668 -0.00964696 0.25739857 6.09206826e-03
272 1 0.71760256 -0.01048791 0.26492235 5.94781856e-03
273 1 0.83673823 -0.01043332 0.27625510 5.82025544e-03
274 1 0.95420268 -0.00786303 0.28768027 5.95871849e-03
275 1 1.07168019 -0.00710375 0.30202939 6.09232315e-03
276 1 1.18989431 -0.00700448 0.31940964 6.09205550e-03
277 1 1.30774231 -0.00544447 0.33634659 6.08598370e-03
278 1 1.42625631 -0.00565535 0.35484523 6.07933546e-03
279 1 1.54430632 -0.00546247 0.37678011 6.08488133e-03
280 1 1.66038137 -0.00460001 0.39910904 6.08161608e-03
281 1 1.77768124 -0.00463917 0.42414274 6.08881076e-03
282 1 1.89510675 -0.00433210 0.45076333 6.09207793e-03
283 1 2.00963375 -0.00276706 0.47743592 6.09206431e-03
284 1 2.12664243 -0.00042250 0.50656714 6.09206920e-03
285 1 2.24241045 0.00007203 0.53815361 6.09206749e-03
286 1 2.35821410 0.00123231 0.57086813 6.09206826e-03
287 1 2.47383238 0.00264463 0.60372483 6.09206901e-03
288 1 2.58915342 0.00319029 0.63967944 6.08547783e-03
289 1 2.70351941 0.00470029 0.67498498 6.07797420e-03
290 1 2.81762233 0.00625437 0.71238291 6.08460882e-03
291 1 2.93190245 0.00830659 0.75070107 6.08123045e-03
292 1 3.04577303 0.00976101 0.79104521 6.08867780e-03
293 1 3.15844169 0.01085534 0.83111937 6.09206866e-03
294 1 3.27157322 0.01137951 0.87265540 6.09206839e-03
295 1 3.38405035 0.01364621 0.91576402 6.09206833e-03
296 1 3.49651734 0.01486957 0.95979905 6.09206826e-03
297 1 3.60900162 0.01608906 1.00493275 6.09206824e-03
298 1 3.72037716 0.01724021 1.05030284 6.09206825e-03
299 1 3.83177799 0.01888558 1.09715756 6.10477040e-03
300 1 3.94241006 0.02094518 1.14423666 6.10144793e-03
301 1 4.05376328 0.02268330 1.19268061 6.09206826e-03
302 1 4.16459606 0.02436728 1.24178862 6.08473760e-03
303 1 4.27538678 0.02539962 1.29088940 6.07718969e-03
304 1 4.38578768 0.02629950 1.34138549 6.08430762e-03
305 1 4.49511389 0.02932948 1.39299937 6.08084602e-03
306 1 4.60434651 0.03079572 1.44496141 6.08857506e-03
307 1 4.71323831 0.03202987 1.49785687 6.09439460e-03
308 1 4.82189586 0.03351664 1.55154857 6.09360296e-03
309 1 4.93012244 0.03628188 1.60549385 6.10212083e-03
310 1 5.03782484 0.03784099 1.66024006 6.09455787e-03
311 1 5.14573689 0.03965504 1.71590384 6.08457013e-03
312 1 5.25340757 0.04176298 1.77216819 6.08334006e-03
313 1 5.36048523 0.04362970 1.82872611 6.09025173e-03
314 1 5.46751312 0.04522515 1.88610058 6.09206826e-03
315 1 5.57458423 0.04702946 1.94431707 6.09206826e-03
316 1 5.68091946 0.04914472 2.00265089 6.08838437e-03
317 1 5.78679609 0.05153122 2.06199059 6.09329454e-03
318 1 5.89233508 0.05269552 2.12153758 6.09400483e-03
319 1 5.99819965 0.05480500 2.18158066 6.08872179e-03
320 1 6.10385287 0.05698912 2.24209450 6.08812243e-03
321 1 6.20902831 0.05944538 2.30262096 6.09206826e-03
322 1 6.31390455 0.06142101 2.36428075 6.09206826e-03
323 1 6.41856542 0.06394433 2.42656481 6.09206826e-03
324 1 6.52284729 0.06598814 2.48883666 6.06302327e-03
325 1 6.62696561 0.06839770 2.55167078 6.06302327e-03
326 1 6.73092905 0.07063725 2.61477899 5.90236529e-03
327 1 6.83484444 0.07303935 2.67857313 5.81608564e-03
328 1 6.93863621 0.07561870 2.74260916 6.10035823e-03
329 1 7.04200265 0.07760099 2.80682592 5.08741347e-03
330 1 7.14584074 0.07981966 2.87123764 6.88423117e-03
331 1 7.24884007 0.08230871 2.93629982 4.95164977e-03
332 1 7.35172225 0.08469800 3.00107636 5.63292633e-03
333 1 7.45464016 0.08694408 3.06656408 5.95654755e-03
334 1 7.55742927 0.08931259 3.13224148 6.00432988e-03
335 1 7.66010068 0.09189657 3.19819207 6.08757506e-03
336 1 7.76254020 0.09432464 3.26438499 5.05700823e-03
337 1 7.86502910 0.09661835 3.33071469 6.83715280e-03
338 1 7.96729006 0.09925660 3.39721041 4.93632937e-03
339 1 8.06941445 0.10163679 3.46421862 5.62467055e-03
340 1 8.17136212 0.10401292 3.53117240 5.95386311e-03
341 1 8.27307734 0.10661710 3.59847668 6.00199927e-03
342 1 8.37489602 0.10919578 3.66601811 6.06987486e-03
343 1 8.47642345 0.11174000 3.73356074 5.01509653e-03
344 1 8.57812322 0.11441421 3.80135783 6.78511241e-03
345 1 8.67961965 0.11699258 3.86932996 4.92113473e-03
346 1 8.78095125 0.11961697 3.93760360 5.61645056e-03
347 1 8.88211727 0.12245043 4.00597606 5.95118153e-03
348 1 8.98336508 0.12507191 4.07438876 6.09206826e-03
349 1 9.08436775 0.12784255 4.14311291 6.09206826e-03
350 1 9.18545150 0.13056362 4.21177147 6.09206826e-03
351 1 9.28650576 0.13335686 4.28067521 6.50085567e-03
352 1 9.38744893 0.13612087 4.34960457 6.38496347e-03
353 1 9.48840169 0.13890928 4.41866752 5.77251663e-03
354 1 9.58924069 0.14175616 4.48777386 5.73476969e-03
355 1 9.69013281 0.14460036 4.55697629 5.94888879e-03
356 1 9.79092514 0.14741122 4.62622923 6.09206826e-03
357 1 9.89167992 0.15040552 4.69555572 6.09206826e-03
358 1 9.99239723 0.15329015 4.76501684 6.09206826e-03
359 1 10.09305948 0.15620554 4.83450651 6.09206826e-03
360 1 10.19365258 0.15919744 4.90406581 4.98457375e-03
361 1 10.29433758 0.16217972 4.97366384 6.69756871e-03
362 1 10.39497618 0.16519626 5.04332128 5.15375987e-03
363 1 10.49558330 0.16821669 5.11298431 4.95985007e-03
364 1 10.59621064 0.17126373 5.18265419 6.48212442e-03
365 1 10.69679870 0.17436576 5.25238058 5.14927068e-03
366 1 10.79739240 0.17745719 5.32211880 4.95341033e-03
367 1 10.89801619 0.18058996 5.39186430 6.46347279e-03
368 1 10.99865606 0.18373159 5.46162184 5.14043101e-03
369 1 11.09928957 0.18690695 5.53138113 4.91020010e-03
370 1 11.19993085 0.19006739 5.60110315 6.45556760e-03
371 1 11.30056370 0.19329944 5.67084648 4.90989307e-03
372 1 11.40123761 0.19654465 5.74057918 5.52395043e-03
373 1 11.50192477 0.19978236 5.81027521 5.87068470e-03
374 1 11.60268369 0.20304136 5.87993452 4.87920209e-03
375 1 11.70343755 0.20634716 5.94956628 6.41661913e-03
376 1 11.80421623 0.20967295 6.01920248 4.89988333e-03
377 1 11.90501562 0.21296483 6.08880956 5.51681014e-03
378 1 12.00584810 0.21630451 6.15834801 5.85936171e-03
379 1 12.10676864 0.21971744 6.22783310 4.85938456e-03
380 1 12.20772229 0.22309326 6.29732546 6.38254444e-03
381 1 12.30863052 0.22660845 6.36672589 4.88995824e-03
382 1 12.40964147 0.23005372 6.43602066 5.57476230e-03
383 1 12.51071615 0.23343420 6.50528633 5.93743790e-03
384 1 12.61183486 0.23708139 6.57452607 5.98766457e-03
385 1 12.71296968 0.24058528 6.64371556 5.96043235e-03
386 1 12.81421566 0.24403058 6.71274549 4.81637844e-03
387 1 12.91548321 0.24764722 6.78166804 6.34214196e-03
388 1 13.01676871 0.25118910 6.85063884 4.87620659e-03
389 1 13.11815218 0.25477599 6.91952774 5.56677439e-03
390 1 13.21957541 0.25846650 6.98832252 5.93477518e-03
391 1 13.32113881 0.26209187 7.05697605 5.98532808e-03
392 1 13.42271529 0.26570746 7.12557305 5.94249673e-03
393 1 13.52438850 0.26944978 7.19409833 4.79106117e-03
394 1 13.62610242 0.27320449 7.26244407 6.34873408e-03
395 1 13.72796684 0.27674207 7.33076937 5.10720957e-03
396 1 13.82989052 0.28064110 7.39893866 4.79385489e-03
397 1 13.93178991 0.28444821 7.46707014 6.33054845e-03
398 1 14.03375609 0.28832932 7.53494491 5.10009402e-03
399 1 14.13592560 0.29210462 7.60292078 4.78369059e-03
400 1 14.23797893 0.29580262 7.67062185 6.31203828e-03
401 1 14.34017957 0.29971047 7.73829643 5.09300092e-03
402 1 14.44260554 0.30354263 7.80588639 4.74903927e-03
403 1 14.54506299 0.30743649 7.87319116 6.32830758e-03
404 1 14.64736708 0.31129799 7.94050644 5.08343922e-03
405 1 14.74992973 0.31523708 8.00755658 4.32591159e-03
406 1 14.85257703 0.31930936 8.07464123 6.00104739e-03
407 1 14.95525254 0.32309334 8.14153077 5.21119202e-03
408 1 15.05815870 0.32722757 8.20847855 6.09206826e-03
409 1 15.16092619 0.33128033 8.27516815 6.05153388e-03
410 1 15.26393827 0.33520709 8.34177693 5.91774538e-03
411 1 15.36686972 0.33928092 8.40822864 6.22305381e-03
412 1 15.46998608 0.34325028 8.47444552 5.03791106e-03
413 1 15.57322733 0.34739153 8.54058411 4.72607940e-03
414 1 15.67643324 0.35136752 8.60658326 8.71836332e-03
415 1 15.77977470 0.35560228 8.67248402 5.95355142e-03
416 1 15.88318705 0.35964402 8.73830241 5.36960420e-03
417 1 15.98666120 0.36401689 8.80395276 6.03255871e-03
418 1 16.09027055 0.36810402 8.86950712 5.00245570e-03
419 1 16.19408037 0.37232394 8.93497218 4.70280803e-03
420 1 16.29787028 0.37634104 9.00012584 8.65685956e-03
421 1 16.40174602 0.38059516 9.06519189 5.94692135e-03
422 1 16.50557363 0.38489342 9.13021221 5.65886656e-03
423 1 16.60959460 0.38907944 9.19495789 5.98663784e-03
424 1 16.71386137 0.39331894 9.25962944 6.03862808e-03
425 1 16.81805584 0.39764260 9.32417291 6.08821513e-03
426 1 16.92223570 0.40188235 9.38854285 6.17296108e-03
427 1 17.02652871 0.40618582 9.45272658 6.04911048e-03
428 1 17.13096035 0.41034015 9.51691639 6.99423467e-03
429 1 17.23543772 0.41462476 9.58089355 6.49916941e-03
430 1 17.33994231 0.41901938 9.64477842 6.05139015e-03
431 1 17.44471457 0.42329881 9.70844083 6.07023001e-03
432 1 17.54937986 0.42774510 9.77212596 6.06423220e-03
433 1 17.65415092 0.43213715 9.83560130 6.03339671e-03
434 1 17.75890713 0.43660829 9.89899728 6.06123277e-03
435 1 17.86391856 0.44089125 9.96224529 6.05523286e-03
436 1 17.96892113 0.44540547 10.02534613 6.01539697e-03
437 1 18.07392178 0.44968232 10.08828710 6.05223237e-03
438 1 18.17897321 0.45420890 10.15122686 6.04623034e-03
439 1 18.28431854 0.45866937 10.21405471 5.99739088e-03
440 1 18.38952050 0.46312734 10.27659668 6.03386113e-03
441 1 18.49483348 0.46757914 10.33896959 6.06015229e-03
442 1 18.60033769 0.47211270 10.40134542 6.93292310e-03
443 1 18.70595875 0.47651140 10.46355310 6.60839364e-03
444 1 18.81155184 0.48105195 10.52560902 6.08325267e-03
445 1 18.91719369 0.48547155 10.58759675 5.98999100e-03
446 1 19.02286404 0.48995355 10.64937173 6.02220795e-03
447 1 19.12863177 0.49445765 10.71107857 5.94934321e-03
448 1 19.23446545 0.49909282 10.77266898 6.00521256e-03
449 1 19.34031759 0.50361754 10.83406391 5.96042100e-03
450 1 19.44633915 0.50810027 10.89547891 6.01327673e-03
451 1 19.55229103 0.51259412 10.95671821 6.06616825e-03
452 1 19.65835170 0.51718924 11.01787191 6.09206826e-03
453 1 19.76442465 0.52180079 11.07893440 6.22108889e-03
454 1 19.87051760 0.52638176 11.13989338 6.93510095e-03
455 1 19.97671491 0.53093684 11.20073729 6.55067958e-03
456 1 20.08302668 0.53555061 11.26151336 5.44215936e-03
457 1 20.18926102 0.54019719 11.32221667 5.52453627e-03
458 1 20.29556615 0.54472652 11.38277383 6.09206826e-03
459 1 20.40194541 0.54930020 11.44323489 5.52769247e-03
460 1 20.50831242 0.55393522 11.50364183 5.54504444e-03
461 1 20.61475230 0.55851703 11.56388247 6.09206826e-03
462 1 20.72128516 0.56318147 11.62413543 5.52433613e-03
463 1 20.82774841 0.56778959 11.68426978 5.54169116e-03
464 1 20.93430621 0.57232148 11.74435038 6.09959331e-03
465 1 21.04088771 0.57698629 11.80433927 5.37708140e-03
466 1 21.14744064 0.58162264 11.86428977 5.50601994e-03
467 1 21.25403818 0.58624208 11.92416416 6.09132348e-03
468 1 21.36070298 0.59087961 11.98399403 5.36406280e-03
469 1 21.46734199 0.59552675 12.04376539 5.50114066e-03
470 1 21.57401656 0.60014336 12.10352264 6.07613573e-03
471 1 21.68064927 0.60481931 12.16319950 5.86576563e-03
472 1 21.78733232 0.60945983 12.22285754 5.87763704e-03
473 1 21.89402448 0.61410957 12.28248872 5.79509293e-03
474 1 22.00067134 0.61877442 12.34207828 6.45795830e-03
475 1 22.10735810 0.62341556 12.40164404 6.36067877e-03
476 1 22.21402467 0.62808501 12.46118892 5.01672083e-03
477 1 0.12396654 1.20602865 -0.24446053 -5.06599779e-03
478 1 0.24830850 1.20452533 -0.24472644 -5.96099493e-03
479 1 0.37426820 1.20168715 -0.24112986 -6.06828787e-03
480 1 0.50029429 1.20273181 -0.23639254 -6.09081051e-03
481 1 0.62572994 1.20282099 -0.22865876 -6.09597885e-03
482 1 0.75104244 1.20353174 -0.21967681 -6.09677124e-03
483 1 0.87787203 1.20230642 -0.20753932 -6.09261604e-03
484 1 1.00322510 1.20386794 -0.19427914 -6.09210769e-03
485 1 1.12904958 1.20325376 -0.17692473 -6.09159289e-03
486 1 1.25308212 1.20401184 -0.15912130 -6.09258964e-03
487 1 1.37766956 1.20743756 -0.14090312 -6.11404233e-03
488 1 1.50112755 1.20850985 -0.11921131 -6.12924398e-03
489 1 1.62393131 1.20741070 -0.09642420 -6.13810471e-03
490 1 1.74699769 1.20848484 -0.07261624 -6.10740278e-03
491 1 1.87014594 1.20900731 -0.04618689 -6.11299929e-03
492 1 1.99239813 1.21044489 -0.01651148 -6.11651709e-03
493 1 2.11438057 1.21066218 0.01151327 -6.10892752e-03
494 1 2.23597298 1.21390605 0.04267612 -6.08383817e-03
495 1 2.35731783 1.21595665 0.07577917 -6.07811671e-03
496 1 2.47698325 1.21655462 0.11068850 -6.12167487e-03
497 1 2.59648013 1.21676030 0.14574462 -6.12891596e-03
498 1 2.71621372 1.21917202 0.18192205 -6.13439434e-03
499 1 2.83553371 1.22139719 0.22086884 -6.11877956e-03
500 1 2.95408580 1.22175281 0.26036997 -6.09486572e-03
501 1 3.07194888 1.22412464 0.30092366 -6.09206826e-03
502 1 3.19027557 1.22554806 0.34299469 -6.09206855e-03
503 1 3.30695397 1.22695346 0.38623833 -6.09206932e-03
504 1 3.42252524 1.22875551 0.43014278 -6.11378764e-03
505 1 3.53990155 1.23200267 0.47547391 -6.10132488e-03
506 1 3.65455214 1.23392835 0.52154902 -6.14015253e-03
507 1 3.76952922 1.23496698 0.56794909 -6.18862768e-03
508 1 3.88337426 1.23741538 0.61640419 -6.20494803e-03
509 1 3.99762789 1.23908429 0.66442791 -6.16689241e-03
510 1 4.11091344 1.24079323 0.71409096 -6.13536340e-03
511 1 4.22439547 1.24245490 0.76398110 -6.09206826e-03
512 1 4.33725889 1.24421649 0.81465519 -6.09528258e-03
513 1 4.45025715 1.24666950 0.86603736 -6.10197805e-03
514 1 4.56299783 1.24828791 0.91849690 -6.09705471e-03
515 1 4.67456886 1.25062824 0.97170397 -6.06436498e-03
516 1 4.78624276 1.25198578 1.02631085 -6.12133674e-03
517 1 4.89691831 1.25443942 1.08061018 -6.20974613e-03
518 1 5.00759838 1.25689077 1.13586947 -6.24802334e-03
519 1 5.11752014 1.25916194 1.19192827 -6.19819175e-03
520 1 5.22763557 1.26047304 1.24876447 -6.15088270e-03
521 1 5.33740506 1.26273669 1.30627303 -6.13301438e-03
522 1 5.44637277 1.26570430 1.36431445 -6.10131989e-03
523 1 5.55544807 1.26774791 1.42313136 -6.05757291e-03
524 1 5.66386176 1.27041900 1.48224605 -6.04491082e-03
525 1 5.77145059 1.27232319 1.54222175 -6.05437557e-03
526 1 5.87949927 1.27515869 1.60243309 -6.06489385e-03
527 1 5.98668735 1.27768923 1.66300560 -6.09206826e-03
528 1 6.09353593 1.28026732 1.72434755 -6.09206826e-03
529 1 6.20017368 1.28212103 1.78620757 -6.09979510e-03
530 1 6.30639967 1.28454588 1.84839490 -6.12512692e-03
531 1 6.41265686 1.28728946 1.91087514 -6.16578501e-03
532 1 6.51844618 1.28928202 1.97410926 -6.26929389e-03
533 1 6.62370585 1.29171372 2.03720049 -6.28695529e-03
534 1 6.72951340 1.29468807 2.10065766 -6.28583704e-03
535 1 6.83459021 1.29688851 2.16461892 -6.23881179e-03
536 1 6.93963632 1.29944005 2.22925125 -6.30184580e-03
537 1 7.04412386 1.30201834 2.29397515 -6.28022129e-03
538 1 7.14850517 1.30464144 2.35896825 -6.24103982e-03
539 1 7.25289276 1.30731744 2.42423216 -6.33470904e-03
540 1 7.35690528 1.30943556 2.49017848 -6.28101331e-03